 Gaussian 16, Revision C.01,
 Gaussian 16:  ES64L-G16RevC.01  3-Jul-2019

 -----------------------------------------------------------------
 #RHF/STO-3G int=nobasistransform Symmetry=None 5D 7F Pop=NBO7Read
 -----------------------------------------------------------------

 ---------
 mol65-NBO
 ---------
 Symbolic Z-matrix:
 Charge =  0 Multiplicity = 1

                          Input orientation:
 ---------------------------------------------------------------------
 Center     Atomic      Atomic             Coordinates (Angstroms)
 Number     Number       Type             X           Y           Z
 ---------------------------------------------------------------------
      1         14           0        0.000000    0.000000    0.000000
      2         17           0        1.169349    1.169349    1.169349
      3         17           0       -1.169349   -1.169349    1.169349
      4         17           0        1.169349   -1.169349   -1.169349
      5         17           0       -1.169349    1.169349   -1.169349
 ---------------------------------------------------------------------

 SCF Done:  E(RHF) =  -2104.12272625     A.U. after    8 cycles

 Alpha  occ. eigenvalues -- -103.73594-103.73593-103.73593-103.73593 -68.27594
 Alpha  occ. eigenvalues --  -10.42367 -10.42337 -10.42337 -10.42337  -7.86774
 Alpha  occ. eigenvalues --   -7.86737  -7.86737  -7.86737  -7.86143  -7.86143
 Alpha  occ. eigenvalues --   -7.86143  -7.86140  -7.86140  -7.86140  -7.86119
 Alpha  occ. eigenvalues --   -7.86119  -6.23736  -4.26268  -4.26268  -4.26268
 Alpha  occ. eigenvalues --   -1.14484  -1.06588  -1.06588  -1.06588  -0.68789
 Alpha  occ. eigenvalues --   -0.55764  -0.55764  -0.55764  -0.47201  -0.47201
 Alpha  occ. eigenvalues --   -0.44515  -0.44515  -0.44515  -0.44482  -0.44482
 Alpha  occ. eigenvalues --   -0.44482
 Alpha virt. eigenvalues --    0.18315   0.30979   0.30979   0.30979

 Mulliken charges:
               1
     1  Si   1.130630
     2  Cl  -0.282658
     3  Cl  -0.282658
     4  Cl  -0.282658
     5  Cl  -0.282658
 Sum of Mulliken charges =  -0.00000

 Dipole moment (field-independent basis, Debye):
    X=              0.0000    Y=             -0.0000    Z=             -0.0000  Tot=              0.0000
 Quadrupole moment (field-independent basis, Debye-Ang):
   XX=            -63.5395   YY=            -63.5395   ZZ=            -63.5395
   XY=             -0.0000   XZ=             -0.0000   YZ=              0.0000

 Summary of Natural Population Analysis:

                                     Natural Population
             Natural    ---------------------------------------------
  Atom No    Charge        Core      Valence    Rydberg      Total
 --------------------------------------------------------------------
   Si  1    1.32578     10.00000     2.67422    0.00000    12.67422
   Cl  2   -0.33145     10.00000     7.33145    0.00000    17.33145
   Cl  3   -0.33145     10.00000     7.33145    0.00000    17.33145
   Cl  4   -0.33145     10.00000     7.33145    0.00000    17.33145
   Cl  5   -0.33145     10.00000     7.33145    0.00000    17.33145
 ====================================================================
 * Total *  0.00000     49.99999    32.00001    0.00000    82.00000

 Normal termination of Gaussian 16 at Mon Nov 18 15:41:20 2024.
