 Gaussian 16, Revision C.01,
 Gaussian 16:  ES64L-G16RevC.01  3-Jul-2019

 -----------------------------------------------------------------
 #RHF/STO-3G int=nobasistransform Symmetry=None 5D 7F Pop=NBO7Read
 -----------------------------------------------------------------

 ---------
 mol67-NBO
 ---------
 Symbolic Z-matrix:
 Charge =  0 Multiplicity = 1

                          Input orientation:
 ---------------------------------------------------------------------
 Center     Atomic      Atomic             Coordinates (Angstroms)
 Number     Number       Type             X           Y           Z
 ---------------------------------------------------------------------
      1         17           0       -0.537724   -0.961291    0.000000
      2          7           0        0.000000    0.997037    0.000000
      3          8           0        1.142664    1.170335    0.000000
 ---------------------------------------------------------------------

 SCF Done:  E(RHF) =  -582.061104345     A.U. after   14 cycles

 Alpha  occ. eigenvalues -- -103.63746 -20.56871 -15.66714 -10.32813  -7.77171
 Alpha  occ. eigenvalues --   -7.76703  -7.76682  -1.63234  -1.01006  -0.89253
 Alpha  occ. eigenvalues --   -0.70353  -0.65878  -0.65478  -0.37677  -0.37667
 Alpha  occ. eigenvalues --   -0.34323
 Alpha virt. eigenvalues --    0.12932   0.15121   0.78322

 Mulliken charges:
               1
     1  Cl  -0.246432
     2  N    0.229872
     3  O    0.016559
 Sum of Mulliken charges =  -0.00000

 Dipole moment (field-independent basis, Debye):
    X=              1.3472    Y=              2.3088    Z=              0.0000  Tot=              2.6731
 Quadrupole moment (field-independent basis, Debye-Ang):
   XX=            -22.2752   YY=            -21.2501   ZZ=            -20.1955
   XY=             -0.0085   XZ=             -0.0000   YZ=              0.0000

 Summary of Natural Population Analysis:

                                     Natural Population
             Natural    ---------------------------------------------
  Atom No    Charge        Core      Valence    Rydberg      Total
 --------------------------------------------------------------------
   Cl  1   -0.27790     10.00000     7.27790    0.00000    17.27790
    N  2    0.30226      2.00000     4.69774    0.00000     6.69774
    O  3   -0.02436      2.00000     6.02436    0.00000     8.02436
 ====================================================================
 * Total *  0.00000     14.00000    18.00000    0.00000    32.00000

 Normal termination of Gaussian 16 at Mon Nov 18 15:41:34 2024.
