 Gaussian 16, Revision C.01,
 Gaussian 16:  ES64L-G16RevC.01  3-Jul-2019

 --------------------------------------------------------------
 #RHF/Gen 5D 7F int=nobasistransform Symmetry=NONE Pop=NBO7Read
 --------------------------------------------------------------

 ------
 NBO-Si
 ------
 Symbolic Z-matrix:
 Charge =  0 Multiplicity = 1

                          Input orientation:
 ---------------------------------------------------------------------
 Center     Atomic      Atomic             Coordinates (Angstroms)
 Number     Number       Type             X           Y           Z
 ---------------------------------------------------------------------
      1         14           0        0.000000    0.000000    0.000000
 ---------------------------------------------------------------------

 SCF Done:  E(RHF) =  -285.383974201     A.U. after    4 cycles

 Alpha  occ. eigenvalues --  -67.71576  -5.75127  -3.76675  -3.76675  -3.76558
 Alpha  occ. eigenvalues --   -0.40510  -0.05496
 Alpha virt. eigenvalues --    0.28658   0.28658

 Mulliken charges:
               1
     1  Si   0.000000
 Sum of Mulliken charges =   0.00000

 Dipole moment (field-independent basis, Debye):
    X=             -0.0000    Y=             -0.0000    Z=              0.0000  Tot=              0.0000
 Quadrupole moment (field-independent basis, Debye-Ang):
   XX=            -12.5377   YY=             -8.9384   ZZ=             -8.2260
   XY=             -1.8019   XZ=             -0.3876   YZ=             -0.1607

 Summary of Natural Population Analysis:

                                     Natural Population
             Natural    ---------------------------------------------
  Atom No    Charge        Core      Valence    Rydberg      Total
 --------------------------------------------------------------------
   Si  1    0.00000     10.00000     4.00000    0.00000    14.00000
 ====================================================================
 * Total *  0.00000     10.00000     4.00000    0.00000    14.00000

 Normal termination of Gaussian 16 at Wed Jan  8 08:57:52 2025.
