 Gaussian 16, Revision C.01,
 Gaussian 16:  ES64L-G16RevC.01  3-Jul-2019

 -----------------------------------------------------------------
 #RHF/6-31G* int=nobasistransform Symmetry=None 5D 7F Pop=NBO7Read
 -----------------------------------------------------------------

 ---------
 mol37-NBO
 ---------
 Symbolic Z-matrix:
 Charge =  0 Multiplicity = 1

                          Input orientation:
 ---------------------------------------------------------------------
 Center     Atomic      Atomic             Coordinates (Angstroms)
 Number     Number       Type             X           Y           Z
 ---------------------------------------------------------------------
      1          9           0        0.000000    0.000000    0.710304
      2          9           0        0.000000    0.000000   -0.710304
 ---------------------------------------------------------------------

 SCF Done:  E(RHF) =  -198.668895902     A.U. after    8 cycles

 Alpha  occ. eigenvalues --  -26.42758 -26.42738  -1.75243  -1.49148  -0.80011
 Alpha  occ. eigenvalues --   -0.80011  -0.73868  -0.65863  -0.65863
 Alpha virt. eigenvalues --    0.10140   1.35219   1.35219   1.39334   1.51400
 Alpha virt. eigenvalues --    1.53584   1.53584   1.57252   1.81003   1.81003
 Alpha virt. eigenvalues --    1.97210   1.97210   2.05099   2.21295   2.21295

 Mulliken charges:
               1
     1  F   -0.000000
     2  F    0.000000
 Sum of Mulliken charges =  -0.00000

 Dipole moment (field-independent basis, Debye):
    X=              0.0000    Y=             -0.0000    Z=             -0.0000  Tot=              0.0000
 Quadrupole moment (field-independent basis, Debye-Ang):
   XX=             -9.3191   YY=             -9.3191   ZZ=             -8.4148
   XY=              0.0000   XZ=             -0.0000   YZ=              0.0000

 Summary of Natural Population Analysis:

                                     Natural Population
             Natural    ---------------------------------------------
  Atom No    Charge        Core      Valence    Rydberg      Total
 --------------------------------------------------------------------
    F  1    0.00000      2.00000     6.99482    0.00518     9.00000
    F  2    0.00000      2.00000     6.99482    0.00518     9.00000
 ====================================================================
 * Total *  0.00000      3.99999    13.98964    0.01036    18.00000

 Normal termination of Gaussian 16 at Mon Nov 18 16:40:06 2024.
