 Gaussian 16, Revision C.01,
 Gaussian 16:  ES64L-G16RevC.01  3-Jul-2019

 -----------------------------------------------------------------
 #RHF/STO-3G int=nobasistransform Symmetry=None 5D 7F Pop=NBO7Read
 -----------------------------------------------------------------

 ---------
 mol94-NBO
 ---------
 Symbolic Z-matrix:
 Charge =  0 Multiplicity = 1

                          Input orientation:
 ---------------------------------------------------------------------
 Center     Atomic      Atomic             Coordinates (Angstroms)
 Number     Number       Type             X           Y           Z
 ---------------------------------------------------------------------
      1          6           0        0.000000    0.000000    0.341023
      2          1           0        0.000000    0.000000    1.429485
      3          9           0        0.000000    1.258200   -0.128727
      4          9           0        1.089633   -0.629100   -0.128727
      5          9           0       -1.089633   -0.629100   -0.128727
 ---------------------------------------------------------------------

 SCF Done:  E(RHF) =  -332.096282840     A.U. after    9 cycles

 Alpha  occ. eigenvalues --  -25.97398 -25.97375 -25.97375 -11.28360  -1.61268
 Alpha  occ. eigenvalues --   -1.51223  -1.51223  -0.87033  -0.71906  -0.66366
 Alpha  occ. eigenvalues --   -0.66366  -0.51928  -0.51928  -0.48604  -0.46918
 Alpha  occ. eigenvalues --   -0.46918  -0.43483
 Alpha virt. eigenvalues --    0.58890   0.58890   0.64071   0.65887

 Mulliken charges:
               1
     1  C    0.393257
     2  H    0.069216
     3  F   -0.154157
     4  F   -0.154157
     5  F   -0.154157
 Sum of Mulliken charges =   0.00000

 Dipole moment (field-independent basis, Debye):
    X=             -0.0000    Y=             -0.0000    Z=              1.1117  Tot=              1.1117
 Quadrupole moment (field-independent basis, Debye-Ang):
   XX=            -19.3974   YY=            -19.3974   ZZ=            -16.6815
   XY=              0.0000   XZ=              0.0000   YZ=             -0.0000

 Summary of Natural Population Analysis:

                                     Natural Population
             Natural    ---------------------------------------------
  Atom No    Charge        Core      Valence    Rydberg      Total
 --------------------------------------------------------------------
    C  1    0.54853      1.99999     3.45148    0.00000     5.45147
    H  2    0.00128      0.00000     0.99872    0.00000     0.99872
    F  3   -0.18327      2.00000     7.18327    0.00000     9.18327
    F  4   -0.18327      2.00000     7.18327    0.00000     9.18327
    F  5   -0.18327      2.00000     7.18327    0.00000     9.18327
 ====================================================================
 * Total *  0.00000      7.99999    26.00001    0.00000    34.00000

 Normal termination of Gaussian 16 at Mon Nov 18 15:41:41 2024.
