 Gaussian 16, Revision C.01,
 Gaussian 16:  ES64L-G16RevC.01  3-Jul-2019

 ----------------------------------------------------
 #OPT=VeryTight Int=UltraFine RHF/STO-3G Pop=NBO7Read
 ----------------------------------------------------

 ----------
 NBO-CH3BH2
 ----------
 Symbolic Z-matrix:
 Charge =  0 Multiplicity = 1

 SCF Done:  E(RHF) =  -64.5776684936     A.U. after   10 cycles
 SCF Done:  E(RHF) =  -64.6341869965     A.U. after    9 cycles
 SCF Done:  E(RHF) =  -64.6662025293     A.U. after   10 cycles
 SCF Done:  E(RHF) =  -64.6675780208     A.U. after    9 cycles
 SCF Done:  E(RHF) =  -64.6676792884     A.U. after    8 cycles
 SCF Done:  E(RHF) =  -64.6676861813     A.U. after    8 cycles
 SCF Done:  E(RHF) =  -64.6676865895     A.U. after    7 cycles
 SCF Done:  E(RHF) =  -64.6676865994     A.U. after    6 cycles
 SCF Done:  E(RHF) =  -64.6676866005     A.U. after    5 cycles
 SCF Done:  E(RHF) =  -64.6676866006     A.U. after    4 cycles
 Optimization completed.
    -- Stationary point found.

                         Standard orientation:
 ---------------------------------------------------------------------
 Center     Atomic      Atomic             Coordinates (Angstroms)
 Number     Number       Type             X           Y           Z
 ---------------------------------------------------------------------
      1          6           0        0.687742    0.000000   -0.007229
      2          1           0        1.113618   -0.882096   -0.470788
      3          1           0        1.113618    0.882097   -0.470786
      4          1           0        1.009089   -0.000001    1.033227
      5          5           0       -0.882134    0.000000   -0.011952
      6          1           0       -1.476056   -0.998978    0.005741
      7          1           0       -1.476056    0.998978    0.005741
 ---------------------------------------------------------------------

 The electronic state is 1-A.
 Alpha  occ. eigenvalues --  -11.00447  -7.40740  -0.91006  -0.63776  -0.54105
 Alpha  occ. eigenvalues --   -0.51781  -0.43397  -0.43223
 Alpha virt. eigenvalues --    0.25343   0.66305   0.71857   0.72788   0.76418
 Alpha virt. eigenvalues --    0.78385   0.87971

 Mulliken charges:
               1
     1  C   -0.302875
     2  H    0.059878
     3  H    0.059878
     4  H    0.067299
     5  B    0.258813
     6  H   -0.071496
     7  H   -0.071496
 Sum of Mulliken charges =  -0.00000

 Dipole moment (field-independent basis, Debye):
    X=              0.3076    Y=             -0.0000    Z=              0.0732  Tot=              0.3162
 Quadrupole moment (field-independent basis, Debye-Ang):
   XX=            -15.0682   YY=            -14.5519   ZZ=            -12.4533
   XY=             -0.0000   XZ=              0.1250   YZ=             -0.0000

 Summary of Natural Population Analysis:

                                     Natural Population
             Natural    ---------------------------------------------
  Atom No    Charge        Core      Valence    Rydberg      Total
 --------------------------------------------------------------------
    C  1   -0.34099      2.00000     4.34099    0.00000     6.34099
    H  2    0.05202      0.00000     0.94798    0.00000     0.94798
    H  3    0.05202      0.00000     0.94798    0.00000     0.94798
    H  4    0.06375      0.00000     0.93625    0.00000     0.93625
    B  5    0.50539      2.00000     2.49461    0.00000     4.49461
    H  6   -0.16609      0.00000     1.16609    0.00000     1.16609
    H  7   -0.16609      0.00000     1.16609    0.00000     1.16609
 ====================================================================
 * Total *  0.00000      4.00000    12.00000    0.00000    16.00000

 Normal termination of Gaussian 16 at Wed Jul 24 11:04:51 2024.
