 Gaussian 16, Revision C.01,
 Gaussian 16:  ES64L-G16RevC.01  3-Jul-2019

 -----------------------------------------------------------------
 #RHF/6-31G* int=nobasistransform Symmetry=None 5D 7F Pop=NBO7Read
 -----------------------------------------------------------------

 ---------
 mol22-NBO
 ---------
 Symbolic Z-matrix:
 Charge =  0 Multiplicity = 1

                          Input orientation:
 ---------------------------------------------------------------------
 Center     Atomic      Atomic             Coordinates (Angstroms)
 Number     Number       Type             X           Y           Z
 ---------------------------------------------------------------------
      1          3           0        0.000000    0.000000   -1.174965
      2          9           0        0.000000    0.000000    0.391655
 ---------------------------------------------------------------------

 SCF Done:  E(RHF) =  -106.933175990     A.U. after   10 cycles

 Alpha  occ. eigenvalues --  -26.09954  -2.43154  -1.35982  -0.47999  -0.45692
 Alpha  occ. eigenvalues --   -0.45692
 Alpha virt. eigenvalues --    0.00652   0.07392   0.07392   0.12477   0.20509
 Alpha virt. eigenvalues --    0.24129   0.24129   0.38759   0.58365   0.58365
 Alpha virt. eigenvalues --    0.66897   0.66897   0.75036   1.74872   1.80471

 Mulliken charges:
               1
     1  Li   0.692303
     2  F   -0.692303
 Sum of Mulliken charges =   0.00000

 Dipole moment (field-independent basis, Debye):
    X=              0.0000    Y=             -0.0000    Z=             -6.2162  Tot=              6.2162
 Quadrupole moment (field-independent basis, Debye-Ang):
   XX=             -6.9600   YY=             -6.9600   ZZ=             -0.5384
   XY=             -0.0000   XZ=             -0.0000   YZ=              0.0000

 Summary of Natural Population Analysis:

                                     Natural Population
             Natural    ---------------------------------------------
  Atom No    Charge        Core      Valence    Rydberg      Total
 --------------------------------------------------------------------
   Li  1    0.92429      1.99986     0.00024    0.07560     2.07571
    F  2   -0.92429      2.00000     7.92112    0.00318     9.92429
 ====================================================================
 * Total *  0.00000      3.99986     7.92136    0.07878    12.00000

 Normal termination of Gaussian 16 at Mon Nov 18 16:40:06 2024.
