                               Psi4 1.6.1 release

  ==> Input File <==

--------------------------------------------------------------------------
############################################################################
########################## TO - DO  ########################################
############################################################################

np.set_printoptions(threshold=sys.maxsize,formatter={'float': lambda x: "{0:20.4f}".format(x)},linewidth=400)

def nao_step_2(Pp,Sp):
  N_st    = np.zeros((nbas,nbas))
  W_st    = np.zeros(nbas)
  rho_av  = np.zeros((nbas,nbas))
  s_av    = np.zeros((nbas,nbas))
  #Calling spherical symmetry averaging
  rho_av,s_av = load_average(Pp,Sp)
  print("=====================================================")
  print("===== P^(av) =====")
  prntMtrx(rho_av)
  print("===== S^(av) =====")
  prntMtrx(s_av)
  print("=====================================================")
  #Solving generalized eigenvalue problem and return overall (av,pnao) transformation
  W_st,N_st = GenEig(rho_av,s_av)
  print("===== P^(av)N=WS^(av)N (atom,l) blockwise diagonalization =====")
  print("===== W =====","\n",W_st)
  print("===== N =====")
  prntMtrx(N_st)
  print("===== ibasismap =====","\n",ibasismap_st)
  return W_st,N_st,rho_av,s_av

def load_average(Pp,Sp):
  #Ap contains the density to average
  #Bp contains the overlap to average
  Ap = Pp.copy()
  Bp = Sp.copy()
  idx = [False for i in range(nbas)]
  idx = np.array(idx).astype(bool)

  #visiting atom,l blocks
  for iatom in range(natom):
    firstb = ibasismap_st[iatom]
    lastb = ibasismap_st[iatom+1]
    lstop = lmax[iatom]+1
    for lctrl in range(lstop):
      ml_up = 2*lctrl+1
      for ibas in range(nbas):
        if center[ibas] == iatom and func_am[ibas] == lctrl:
          idx[ibas] = True
        else:
          idx[ibas] = False

      ntrue = idx.sum()
      print("lctrl",lctrl,"ntrue",ntrue)
      cA = np.zeros((ntrue,ntrue))
      cB = np.zeros((ntrue,ntrue))
      #Copying local block of angularity lctrl
      if lctrl > 0:
        print("lctrl",lctrl)
        nr = 0
        for ibas in range(nbas):
         if idx[ibas] == True:
            nc = 0
            for jbas in range(nbas):
              if idx[jbas] == True:
                cA[nr,nc] = Ap[ibas,jbas].copy()             #if we copy here, we ignore elements with different angularity
                cB[nr,nc] = Bp[ibas,jbas].copy()
                nc+=1
            nr+=1
        #Here averaging on a local block of same angularity
        nsh = int(ntrue/ml_up)                #count shells of same angularity
        shell_idx = [0 for i in range(nsh)]   #starting index in local block
        for i in range(nsh):
          shell_idx[i] = i*ml_up
        sum_ra=np.zeros(ml_up)
        sum_rb=np.zeros(ml_up)
        sum_ca=np.zeros(ml_up)
        sum_cb=np.zeros(ml_up)
        print("===== cA before average =====","\n",cA)
        print("===== cB before average =====","\n",cB)
        for i in range(nsh):
          for j in range(nsh):
            ifirst = shell_idx[i]
            jfirst = shell_idx[j]
            for im in range(ml_up):
              sum_ra[im] = np.sum(cA[ifirst:ifirst+ml_up,jfirst+im])   #sum of all row elements of the im column
              sum_rb[im] = np.sum(cB[ifirst:ifirst+ml_up,jfirst+im])
            for jm in range(ml_up):
              sum_ca[jm] = np.sum(cA[ifirst+jm,jfirst:jfirst+ml_up])   #sum of all column elements of the jm row
              sum_cb[jm] = np.sum(cB[ifirst+jm,jfirst:jfirst+ml_up])
            for im in range(ml_up):
              for jm in range(ml_up):
                  cA[ifirst+im,jfirst+im] = (sum_ra[im] + sum_ca[im])/(2.0)  #average of both numbers
                  cB[ifirst+im,jfirst+im] = (sum_rb[im] + sum_cb[im])/(2.0)  #average of both numbers
        print("===== cA after average =====","\n",cA)
        print("===== cB after average =====","\n",cB)
        #Copying back local block of angularity lctrl
        nr=0
        for ibas in range(nbas):
          if idx[ibas] == True:
            nc=0
            for jbas in range(nbas):
              if idx[jbas] == True:
                Ap[ibas,jbas] = cA[nr,nc].copy()
                Bp[ibas,jbas] = cB[nr,nc].copy()
                nc += 1
            nr += 1
    print("===== Ap after average =====")
    prntMtrx(Ap)
    print("===== Bp after average =====")
    prntMtrx(Bp)
  return Ap,Bp

def GenEig(P_av,S_av):
  #P_av = abs(P_av)
  #S_av = abs(S_av)
  W_ge = np.zeros(nbas)
  N_ge = np.zeros((nbas,nbas))
  idx  = [False for i in range(nbas)]
  idx  = np.array(idx).astype(bool)
  nsh  = 0
  for iatom in range(natom):
    old = nsh
    nsh += nshell[iatom]
    lstop = lmax[iatom]+1             #python counting interval [0,n)
    for lctrl in range(lstop):        #visit angularity in order s=0,p=1,...
      nl_sh = 0
      lm = 2*lctrl+1
      for ibas in range(nbas):
        if center[ibas] == iatom and func_am[ibas] == lctrl:
          idx[ibas] = True
        else:
          idx[ibas] = False

      ntrue=idx.sum()
      #print("N_functions in (iatom,l):(",iatom,lctrl,") block = ",ntrue)
      cS_av = np.zeros((ntrue,ntrue))
      cP_av = np.zeros((ntrue,ntrue))

      cr = 0
      for ibas in range(nbas):
        if idx[ibas] == True:
          cc = 0
          for jbas in range(nbas):
            if idx[jbas] == True:
              cP_av[cr,cc] = P_av[ibas,jbas].copy()
              cS_av[cr,cc] = S_av[ibas,jbas].copy()
              cc+=1
          cr+=1
      #print("=====iatom,l block",iatom,lctrl,"cP_av =====","\n",cP_av)
      #print("=====iatom,l block",iatom,lctrl,"cS_av =====","\n",cS_av)
      eigvals,eigvecs = eigh(cP_av,cS_av)
      jdx = eigvals.argsort()[::-1]
      eigvals = eigvals[jdx]
      eigvecs = eigvecs[:,jdx]
      #print("===== iatom,lblock eigvals =====",iatom,lctrl,"\n",eigvals)
      #print("===== iatom,lblock eigvecs =====",iatom,lctrl,"\n",eigvecs)
      cr = 0
      for ibas in range(nbas):
        if idx[ibas] == True:
          cc = 0
          for jbas in range(nbas):
            if idx[jbas] == True:
              if ntrue > 0:
                W_ge[ibas] = eigvals[cr].copy()
                N_ge[ibas,jbas] = eigvecs[cr,cc].copy()
              cc+=1
          cr+=1
      print("===== Density simultaneous Diagonal blocks atom,l =====","\n",np.matmul(eigvecs.T,np.matmul(cP_av,eigvecs)))
      print("===== Overlap simultaneous Diagonal blocks atom,l =====","\n",np.matmul(eigvecs.T,np.matmul(cS_av,eigvecs)))
  return W_ge,N_ge

def nmb_count(atNum,iatom):
  iatnum=atNum[iatom]
  if iatnum >= 87:
    exit("Principal quantum number n > 6 to be implemented")
  elif iatnum >= 55:
    imbcount = 43
  elif iatnum >= 37:
    imbcount = 27
  elif iatnum >= 19:
    imbcount = 18
  elif iatnum >= 11:
    imbcount = 9
  elif iatnum >= 5:
    imbcount = 5
  elif iatnum >= 3:
    imbcount = 2
  else:
    imbcount = 1
  print("iatom,iatnum,imbcount",iatom,iatnum,imbcount)
  return imbcount

def createNMBmask(w,nbas,ibasismap,atNum):
  #Purpose: Define logical array indexing to NMB according to occupations
  wsort = w.copy()
  mask = [False for i in range(nbas)] #Initializing
  imbcount=0
  fidx=0
  for iatom in range(natom):
    imbcount = nmb_count(atNum,iatom)
    ifirst = ibasismap[iatom]                              #start of the funcs for this atom
    ilast  = ibasismap[iatom+1]-1                          #end of the funcs for this atom
    res=np.sort(wsort[ifirst:ilast+1],kind='heapsort')     #occupations vector
    res=res[::-1]                                          #ordering largest to lowest
    fidx=imbcount-1
    thresh = res[int(fidx)].copy()-1.0e-4                  #occupations up to the numerical threshold
    #print("imbcount,fidx,res,thres",imbcount,fidx,res,thresh)
    #print("wsort",wsort)
    #print("res",res)
    for i in range(ifirst,ilast+1):                        #Seek for the largest occupation on each atom
      value = w[i].copy()                                  #NMB basis functions are selected
      if (value >= thresh) or (imbcount>0):                #untill the imbcount decreases to zero
        mask[i] = True
        imbcount -= 1
      else:
        mask[i] = False
    #print(mask)
  return mask

def partBasis(mask_pb,ntrue,nfalse,imap_pb):
  #The goal is to make a partition of the basis in two sets
  #imap contains indexing in order to split the basis
  imap_pb[:]=0
  nb=len(mask_pb)
  ntrue = 0
  for ibas in range(nb):
    if (mask_pb[ibas]):
      ntrue += 1
      imap_pb[ibas]=ntrue
  nfalse = 0
  for ibas in range(nb):
    if (not mask_pb[ibas]):
      nfalse += 1
      imap_pb[ibas]=ntrue+nfalse
  return imap_pb,ntrue,nfalse

def mapMatrix(A,imap):
  #Define orbitals shuffle from imap as a unitary tranformation
  #Forward: newM=A*oldM*A.T
  #Reverse: oldM=A.T*newM*A
  nb=len(A[:,0])
  dummy=np.zeros((nb,nb))
  for j in range(nb):
    dummy[:,j] = A[:,imap[j]-1]
  return dummy

def symmOrthMat(Sw,w):
  #Weigthed symmetric orthogonalization
  #The weigths w_i are occupations stored in W
  #the eigenvalues colected from \tilde(P)N = W\tilde(S)N
  nthresh = 1.0e-12
  rank=len(Sw[0,:])
  Ow=np.zeros((rank,rank))
  for i in range(rank):
    for j in range(rank):
      Ow[i,j] = w[i]*Sw[i,j]*w[j]
  print("Ow","\n",Ow)
  print("same?","\n",Sw*np.outer(w,w))
  x,y=eigh(Ow)
  jdx = x.argsort()[::-1]
  x = x[jdx]
  y = y[:,jdx]
  for i in range(rank):
    if (x[i] < nthresh):
      print("Warning: Found small eigenvalue in Ow")
      #exit()
  print("x","\n",x)
  print("y","\n",y)
  x=np.power(x,-0.5)
  x=np.diag(x)
  x=np.matmul(y,np.matmul(x,y.T))
  print("Sw^(-1/2)*Sw*Sw^(-1/2) = E ?","\n",np.matmul(np.matmul(x,Ow),x.T))
  for i in range(rank):
    for j in range(rank):
      x[i,j]=w[i]*x[i,j]
  print("w(wSw)^(-1/2)","\n",x)
  return x

def GenOverlap(N_go,S_go):
  #Purpose is to compute the MOs overlap matrix
  nrows=len(N_go[:,0])
  ncols=len(N_go[0,:])
  nfunc=len(S_go[0,:])
  print("nrows,ncols,nfunc",nrows,ncols,nfunc)
  GenS = np.zeros((nrows,ncols))
  for i in range(nrows):
    for j in range(ncols):
      factor_go = 0.0
      for alpha in range(nrows):
        for beta in range(ncols):
          factor_go += N_go[alpha,i]*N_go[beta,j]*S_go[alpha,beta]
      GenS[i,j] = factor_go
  return GenS

def S_ij(coeff1,coeff2,S_ab):
  #Purpose is to compute a specific i,j-th element of MOs overlap matrix
  nfun = len(S_ab[:,0])
  number = 0.0
  for alpha in range(nfun):
    for beta in range(nfun):
      number += coeff1[alpha]*coeff2[beta]*S_ab[alpha,beta] #fixme \sum_ab coeff1_ai^{*}.coeff2_bj.S_ab
  return number

# Function to print the matrix in chunks of 10 columns
def prntMtrx(matrix, chunk_size=10):
  num_columns = matrix.shape[1]
  print("")
  for start in range(0, num_columns, chunk_size):
    end = start + chunk_size
    header = [f"             [Col{i+1:>3}]" for i in range(start, min(end, num_columns))]
    print("     "+" ".join(header))
    for row_index, row in enumerate(matrix[:, start:end]):
      print(f"[Row{row_index+1:>4}] " + " ".join(f"{val:20.4f}" for val in row))

#Function to remap P(AO) and S(AO) into Gaussian std m_l ordering for real spherical harmonics
def stdGorder(A):
  #A contains the matrix to shuffle
  Ap  = A.copy()
  cA  = np.zeros((nbas,nbas))
  idx = [False for i in range(nbas)]
  idx = np.array(idx).astype(bool)

  cA = Ap.copy()
  #visiting atom,l blocks
  for iatom in range(natom):
    lstop = lmax[iatom]+1
    for lctrl in range(lstop):
      ml_up = 2*lctrl+1
      for ibas in range(nbas):
        if center[ibas] == iatom and func_am[ibas] == lctrl:
          idx[ibas] = True
        else:
          idx[ibas] = False

      ntrue = np.sum(idx)
      nsh = int(ntrue/ml_up)                #count shells of same angularity
      shell_idx = [0 for i in range(nsh)]   #starting index in local block
      for ish in range(nsh):
        shell_idx[ish] = ish*ml_up
      ###print("shell_idx",shell_idx)

      order=np.zeros(ntrue).astype(int)
      nb = 0
      for ibas in range(nbas):
        if center[ibas] == iatom and func_am[ibas] == lctrl:
          if idx[ibas] == True:
            order[nb] = ibas
            nb += 1
      #print("GaussianOrdering","iatom",iatom,"ntrue",ntrue,"lctrl",lctrl)
      #print("order before",order)
      #STO-3G works for single shells Add functionality for multiple shells
      #Transform local block of functions with angularity lctrl
      if lctrl == 0 and lctrl < lstop:
        shuffle = np.zeros(nbas)
        shuffle = shuffle.astype(int)
        shuffle = [i for i in range(1,nbas+1)] #sequence for full matrix dimensions
        E = np.identity(nbas)                  #
        M = mapMatrix(E,shuffle)               #permutes the identity to define the indexing M matrix
        cA = np.matmul(M.T,np.matmul(cA,M))
      elif lctrl == 1:
        shuffle = np.zeros(nbas)
        shuffle = shuffle.astype(int)
        stdOrder = np.array([[0.0, 1.0, 0.0],
                             [0.0, 0.0, 1.0],
                             [1.0, 0.0, 0.0]], dtype=np.float64)
        for ish in range(nsh):
          first = shell_idx[ish]
          last = first+ml_up
          order[first:last] = np.matmul(stdOrder,order[first:last])
          #print("p-shells","f",first,"l",last,"order",order)
        n=0
        for ibas in range(nbas):
          if idx[ibas] == False:
            shuffle[ibas] = ibas+1
          else:
            shuffle[ibas] = order[n]+1
            n+=1
        E  = np.identity(nbas)
        M  = mapMatrix(E,shuffle)
        cA = np.matmul(M.T,np.matmul(cA,M))
      elif lctrl == 2:
        shuffle = np.zeros(nbas)
        shuffle = shuffle.astype(int)
        stdOrder = np.array([[1.0, 0.0, 0.0, 0.0, 0.0],
                             [0.0, 1.0, 0.0, 0.0, 0.0],
                             [0.0, 0.0, 1.0, 0.0, 0.0],
                             [0.0, 0.0, 0.0, 1.0, 0.0],
                             [0.0, 0.0, 0.0, 0.0, 1.0]], dtype=np.float64)
        for ish in range(nsh):
          first = shell_idx[ish]
          last = first+ml_up
          order[first:last] = np.matmul(stdOrder,order[first:last])
        order = order.astype(int)
        n=0
        for ibas in range(nbas):
          if idx[ibas] == False:
            shuffle[ibas] = ibas+1
          else:
            shuffle[ibas] = order[n]+1
            n+=1
        E  = np.identity(nbas)
        M  = mapMatrix(E,shuffle)
        cA = np.matmul(M.T,np.matmul(cA,M))
      elif lctrl == 3:
        shuffle = np.zeros(nbas)
        shuffle = shuffle.astype(int)
        stdOrder = np.array([[1.0, 0.0, 0.0, 0.0, 0.0, 0.0, 0.0],
                             [0.0, 1.0, 0.0, 0.0, 0.0, 0.0, 0.0],
                             [0.0, 0.0, 1.0, 0.0, 0.0, 0.0, 0.0],
                             [0.0, 0.0, 0.0, 1.0, 0.0, 0.0, 0.0],
                             [0.0, 0.0, 0.0, 0.0, 1.0, 0.0, 0.0],
                             [0.0, 0.0, 0.0, 0.0, 0.0, 1.0, 0.0],
                             [0.0, 0.0, 0.0, 0.0, 0.0, 0.0, 1.0]], dtype=np.float64)
        for ish in range(nsh):
          first = shell_idx[ish]
          last = first+ml_up
          order[first:last] = np.matmul(stdOrder,order[first:last])
        order = order.astype(int)
        n=0
        for ibas in range(nbas):
          if idx[ibas] == False:
            shuffle[ibas] = ibas+1
          else:
            shuffle[ibas] = order[n]+1
            n+=1
        E  = np.identity(nbas)
        M  = mapMatrix(E,shuffle)
        cA = np.matmul(M.T,np.matmul(cA,M))
  return cA

######## Here we start performing an OPT-RHF/3-21G calculation for H2######
######## FIXME:Replace with a callback to any ESS  ####################
import math
import psi4
import glob
import os
import numpy as np
import sys
from scipy.linalg import eigh

in_path  = './XYZb/'
out_path = './OUTb/'

files = os.listdir(in_path)

for a_molecule in files:
  clean()
  filen = in_path+a_molecule
  fileo = out_path+a_molecule+'.out'
  with open(filen,'r') as f:
    geometry_data = f.read()
    mol = psi4.geometry(f"""
    0 1
    units ang
    no_com
    no_reorient
    symmetry c1
    {geometry_data}
    """
    )
  f.close()
  natom=mol.natom()
  atNum=np.zeros(natom).astype(int)
  atNuCh=np.zeros(natom)
  coords=np.zeros((natom,3))
  with open(fileo, 'w') as file_out:
    sys.stdout = file_out
    print("molecule",a_molecule)
    for iatom in range(natom):
      atNum[iatom] = mol.ftrue_atomic_number(iatom)
      atNuCh[iatom] = mol.Z(iatom)
      coords[iatom,0] = mol.fx(iatom)
      coords[iatom,1] = mol.fy(iatom)
      coords[iatom,2] = mol.fz(iatom)
    #set basis userbas.txt  #Using user basis for consistency. Print and read g16 sets.
    #set basis cc-pvtz
    #set basis 6-311G(2df,2pd)
    #set basis 6-311G(d,p)
    #set basis 6-31g(d)
    #set basis 4-31g
    #set basis 3-21g
    set basis sto-3g
    set reference rhf

    set g_convergence GAU_VERYTIGHT
    set puream true

    ops = {
          'scf_type':'direct',
          'e_convergence': 1e-8,
          'd_convergence': 1e-8,
    }

    psi4.set_options(ops)
    energy,wfn = psi4.energy('SCF',return_wfn=True)

    nmo=wfn.nmo()
    nso=wfn.nso()
    bsb=wfn.get_basisset('ORBITAL')
    bsb.print_detail_out()
    bsb.print_out()
    nbas=bsb.nbf()
    mints = psi4.core.MintsHelper(wfn.basisset())
    Spsi=mints.ao_overlap()
    Upsi=psi4.core.Matrix(nmo,nmo)
    seig=psi4.core.Vector(nmo)
    S=np.asarray(Spsi)
    for iatom in range(natom):
      print("System:, atNum:",atNum[iatom], "coords", coords[iatom])
    print("===== Original AO-S matrix =====")
    prntMtrx(S)
    #Coefficients, Density, and definition of RDMA
    CApsi = wfn.Ca()
    CBpsi = wfn.Cb()
    DApsi = wfn.Da()
    DBpsi = wfn.Db()
    RDMA  = psi4.core.Matrix(nmo,nmo);
    RDMB  = psi4.core.Matrix(nmo,nmo);
    DA    = np.asarray(DApsi)
    DB    = np.asarray(DBpsi)
    CA    = np.asarray(CApsi)
    CB    = np.asarray(CBpsi)
    #################Setting up variables for the NAO tranformation ##############
    nbas=len(DA[:,0])
    N_st                  = np.zeros((nbas,nbas))
    W_st                  = np.zeros(nbas)
    ibasismap_st          = np.zeros(natom+1).astype(int)        #contains the indexes of the first basis function on a given atom
    nshell                = np.zeros(natom).astype(int)          #contains the number of different shells on a given atom
    lmax                  = np.zeros(natom).astype(int)          #contains the max subshell angularity found in an atom
    center                = np.zeros(nbas).astype(int)
    func_am               = np.zeros(nbas).astype(int)
    ibasismap_st[natom]   = nbas
    ##############Setting up indexing arrays for spherical_averaging#############
    print("nbas",nbas)
    ibas = 0
    for iatom in range(natom):
      nshell[iatom]=bsb.nshell_on_center(iatom)
      ibasismap_st[iatom] = ibas
      #print("iatom:",iatom,"nshell[iatom]:",nshell[iatom])
      for ishell in range(nshell[iatom]):
        nfun = bsb.shell(iatom,ishell).nfunction
        for ifun in range(nfun):
          center[ibas]   = iatom
          func_am[ibas]  = bsb.shell(iatom,ishell).am
          #print("func_am[ibas]",func_am[ibas])
          ibas+=1
    #print("ibasismap",ibasismap)
    nsh         = np.sum(nshell)
    shellmap    = np.zeros(nsh)
    ilmap       = np.zeros(nsh)
    ibasisremap = np.zeros(nsh)
    for ishell in range(nsh):
      shellmap[ishell] = bsb.shell_to_basis_function(ishell)
      ilmap[ishell]    = bsb.shell(ishell).am

    ish=0
    for iatom in range(natom):
      lsh=nshell[iatom]
      lmax[iatom] = max(ilmap[ish:ish+lsh])
      ish = ish+nshell[iatom]
      #print("iatom:",iatom,"max angularity:",lmax[iatom])

    ########### Finished to set up variables ####################################

    #print("======= Density in the non-orthogonal representation ============")
    P_psi=np.zeros((nbas,nbas))
    result=np.zeros((nbas,nbas))
    P_psi=DA+DB
    print(" ===== CA ===== ")
    prntMtrx(CA)
    print(" ===== CB ===== ")
    prntMtrx(CB)
    print(" ===== P_psi ===== Dalpha+Dbeta ")
    prntMtrx(P_psi)

    #Rebuilt density in the non-orthogonal HF basis
    occ=np.sum(atNum)/2 #Expected occupied orbitals in RHF
    occ = int(occ)
    for i in range(occ):
      result+=np.einsum('i,j->ij',CA[:,i],CA[:,i])

    Pmn = 0.0
    Pmn = 2.0*result

    #are both the same matrix?
    print("===== P_mu,nu local =====")
    prntMtrx(Pmn)
    print("===== P_mu,nu psi4 =====")
    prntMtrx(P_psi)
    ### Bond order matrix projection into AO basis P=SDS pre-NAO-step1 ###
    result2=np.matmul(S,np.matmul(P_psi,S))
    P=result2.copy()

    #These are the matrices in psi4 std m_l ordering
    print("====== P^(AO) = SPS =====")
    prntMtrx(P)
    print("====== S^(AO) = S =====")
    prntMtrx(S)

    print("====== P^(AO) std gaussian m_l ordering SPS =====")
    P=stdGorder(P)
    prntMtrx(P)

    print("====== S^(AO) std gaussian m_l ordering =====")
    S=stdGorder(S)
    prntMtrx(S)
    ############ NAO-step2 - symmetry averaged matrices ###################
    #
    #S_aoao        =   np.zeros((nbas,nbas))
    #P_aoao        =   np.zeros((nbas,nbas))
    #S_avav        =   np.zeros((nbas,nbas))
    #P_avav        =   np.zeros((nbas,nbas))

    #eigvalP_aoao  =   np.zeros(nbas)
    #eigvecP_aoao  =   np.zeros((nbas,nbas))

    #eigvalP_avav  =   np.zeros(nbas)
    #eigvecP_avav  =   np.zeros((nbas,nbas))

    #N_avpnao=np.zeros((nbas,nbas))
    #W_pnao=np.zeros(nbas)
    #P_aoao = P.copy()
    #S_aoao = S.copy()

    #W_pnao,N_avpnao,P_avav,S_avav = nao_step_2(P_aoao,S_aoao)
    #print("===== P_aoao =====")
    #prntMtrx(P_aoao)
    #print("===== P_avav =====")
    #prntMtrx(P_avav)

    #eigvalP_aoao,eigvecP_aoao = GenEig(P_aoao,S_aoao)
    #eigvalP_avav,eigvecP_avav = GenEig(P_avav,S_avav)

    #print("eigvalP_aoao","\n",eigvalP_aoao)
    #print("eigvalP_avav","\n",eigvalP_avav)

    #print("===== eigvecP_aoao =====")
    #prntMtrx(eigvecP_aoao)
    #print("===== eigvecP_avav =====")
    #prntMtrx(eigvecP_avav)
    ####Assemble transformation from AO to avAO
    #T1 = np.zeros((nbas,nbas))
    #T1 = np.matmul(eigvecP_avav,np.linalg.inv(eigvecP_aoao))

    #print("===== T1 =====")
    #prntMtrx(T1)
    #print("===== T1.T*T1 =====")
    #prntMtrx(np.matmul(T1,T1.T))
    #print("===== Trial P_aoao->P_avav =====")
    #prntMtrx(np.matmul(T1.T,np.matmul(P_aoao,T1)))
    #print("===== P_avav =====")
    #prntMtrx(P_avav)

    #T2 = np.zeros((nbas,nbas))
    #T2 = N_avpnao.copy()
    ####Here Transformation of P, and S to the preNAO basis, end of pre_nao_step_2
    #Ppnao    =   np.zeros((nbas,nbas))
    #Spnao    =   np.zeros((nbas,nbas))
    #Ppnao    =   np.matmul(np.matmul(T1.T,P_aoao),T1)
    #Spnao    =   np.matmul(np.matmul(T1.T,S_aoao),T1)
    #Ppnao    =   np.matmul(np.matmul(T2.T,P_avav),T2)
    #Spnao    =   np.matmul(np.matmul(T2.T,S_avav),T2)
    #print("===== Spnao after averaging =====")
    #Spnao=stdGorder(Spnao)
    #prntMtrx(Spnao)
    #print("===== Ppnao after averaging =====")
    #Ppnao=stdGorder(Ppnao)
    #prntMtrx(Ppnao)
    #continue
    ###########################################################################
    ##################### ===== Starting with step 3 ===== ####################
    #dummy    = np.zeros(nbas)
    #dummy    = W_pnao.copy()
    #Pscsc    = np.zeros((nbas,nbas))
    #Sscsc    = np.zeros((nbas,nbas))
    #N_aosc   = np.matmul(T1,N_avpnao)
    #N_aopnao = np.matmul(T1,N_avpnao)
    #
    #nM=0
    #nR=0
    #
    #aMask = [False for i in range(nbas)] #Initializing the boolean array for having a map
    #aMask=createNMBmask(dummy,nbas,ibasismap,atNum)
    #print("aMask beginning step 3\n",aMask)
    #
    #ibasisremap = np.zeros(nbas).astype(int)
    #ibasisremap,nM,nR = partBasis(aMask,nM,nR,ibasisremap)
    #
    #A   =  np.identity(nbas)
    #M1  =  mapMatrix(A,ibasisremap)
    #print("Mapping matrix to (NMB|NRB) separation M1\n",M1)
    #print(" === N_aosc     === before (N_s,M1)","\n",N_aosc)
    #print(" === N_aopnao === before (N_pnao,M1)","\n",N_aopnao)
    #
    #dummy  = np.matmul(dummy,M1.T)
    #N_aosc   = np.matmul(N_aosc,M1.T)
    #N_aopnao = np.matmul(N_aopnao,M1.T)
    #Ppnao  = np.matmul(M1,np.matmul(Ppnao,M1.T))
    #Spnao  = np.matmul(M1,np.matmul(Spnao,M1.T))
    #
    #print("Minimal basis nM=",nM,"Minimal Rydberg nR=",nR)
    #print("dummy after remapping","\n",dummy)
    #print(" === N_aosc === After (N_s,M1)","\n",N_aosc)
    #print(" === N_pnao === After (N_pnao,M1)","\n",N_aopnao)
    #print(" === Ppnao  === After (M1,Ppnao,M1.T)","\n",Ppnao)
    #print(" === Spnao  === After (M1,Spnao,M1.T)","\n",Spnao)
    #print("NMB set","\n",N_aosc[:,0:nM])
    #print("NRB set","\n",N_aosc[:,nM:nbas])
    ####### Obtain the schmidt orthogonalization between NMB and NRB sets #####
    #fullS=GenOverlap(N_aosc,S)
    #print("===== Check general overlapping matrix =====","\n",fullS)
    ##
    #Os = np.identity(nbas)
    #for j in range(nbas):
    #  for i in range(nM):
    #    if i<j:
    #      proj=S_ij(N_aopnao[:,j],N_aosc[:,i],S)
    #      norm=S_ij(N_aosc[:,i],N_aosc[:,i],S)
    #      if norm < 1.0e-15:
    #        print("Linear dependency found in i,j pair at step 3 Schmidt:",i,j)
    #        exit()
    #      Os[i,j] = proj/norm
    #      N_aosc[:,j] = N_aosc[:,j]-N_aosc[:,i]*Os[i,j]
    #for i in range(nM,nbas):
    #  norm_c = S_ij(N_aosc[:,i],N_aosc[:,i],S)
    #  norm_c = np.sqrt(1.0/norm_c)
    #  N_aosc[:,i] *= norm_c
    #print(" ====== Recovering the NMB functions ===== ")
    #N_aosc[:,0:nM] = N_aopnao[:,0:nM].copy()
    #print(" ====== N^(aosc) Recovered NMB, orthogonal Rydberg-basis) ====== ","\n",N_aosc)
    #T3 = np.matmul(N_aosc,np.linalg.inv(N_aopnao))
    #print(" Os=N_aosc*inv(N_aopnao)*N_aopnao??? ","\n",np.matmul(T3,N_aopnao))
    #print(" ===== Os upper triangular transformation, proj/norm) ===== ","\n",Os)
    #fullS = GenOverlap(N_aosc,S)
    #print(" ===== Check general overlapping matrix ===== ","\n",fullS)
    #Pscsc  = np.matmul(np.matmul(N_aosc.T,P),N_aosc)
    #Sscsc  = np.matmul(np.matmul(N_aosc.T,S),N_aosc)
    #print(" ===== Ppnao^Sch projection ===== ","\n",Pscsc)
    #print(" ===== Spnao^Sch projection ===== ","\n",Sscsc)
    #Pscsc  = np.matmul(M1.T,np.matmul(Pscsc,M1))
    #Sscsc  = np.matmul(M1.T,np.matmul(Sscsc,M1))
    #N_aosc   = np.matmul(N_aosc,M1)
    #N_aopnao = np.matmul(N_aopnao,M1)
    #dummy  = np.matmul(dummy,M1)
    ##
    #print(" ===== P^(ScSc) remap M1 basis ===== ","\n",Pscsc)
    #print(" ===== S^(ScSc) remap M1 basis ===== ","\n",Sscsc)
    #print(" ===== dummy^Sch remap M1 basis ===== ","\n",dummy)
    #print(" ===== N^(aoSch)  ===== ","\n",N_aosc)
    #print("Up to here Schmidt process; step_3; go to step4")
    ###############Recovering the natural character of N ##################
    #avPscsc = np.zeros((nbas,nbas))
    #avSscsc = np.zeros((nbas,nbas))
    #Pryry   = np.zeros((nbas,nbas))
    #Sryry   = np.zeros((nbas,nbas))

    #Wryd,Navscryd,avPscsc,avSscsc,ibasismap,nshell,lmax,ilmap,shellmap,center,func_am = nao_step_2(Pscsc,Sscsc)
    #w1,n1 = GenEig(Pscsc,Sscsc,nshell,lmax,ilmap,shellmap,center,func_am)
    #w2,n2 = GenEig(avPscsc,avSscsc,nshell,lmax,ilmap,shellmap,center,func_am)

    #print("w1",w1)
    #print("w2",w2)
    #T4 = np.matmul(n2,np.linalg.inv(n1))
    #print("T4.T*T4","\n",np.matmul(T4.T,T4))
    #print("Trial avPscsc?","\n",np.matmul(np.matmul(T4.T,Pscsc),T4))
    #print("avPscsc?","\n",avPscsc)

    #dummy = Wryd.copy()
    #T5 = Navscryd.copy()
    #Pryry = np.matmul(T5.T,np.matmul(avPscsc,T5))
    #Sryry = np.matmul(T5.T,np.matmul(avSscsc,T5))
    #print(" ===== Pryry remap basis Nryd ===== ","\n",Pryry)
    #print(" ===== Sryry remap basis Nryd ===== ","\n",Sryry)
    #print(" ===== W^Ryd ===== ","\n",dummy)
    #print(" ===== N^avscRyd  ===== ","\n",Navscryd)
    #print(" ========================================================================= ")
    ###################End of step 3 #######################################
    ###################Let's beggin step 4 #################################
    #print(" ====================Beginning step 4 ==================================== ")
    #ne=np.sum(atNum)
    #print("Number of electrons",ne)
    #check = 0.0
    #control  = abs(ne-check)
    ##control2 = abs(np.sum(atNum[0:natom])-np.sum(dummy[0:nM]))
    #thresh = 1.0e-6
    #print("Threshold for diff trace(P):",thresh)
    ##
    ##while control > thresh:
    #print("Ne- control=",control)
    #aMask = [False for i in range(nbas)]          #Initializing the boolean array for having a map
    #aMask=createNMBmask(dummy,nbas,ibasismap,atNum)
    #print("aMask beginning step 4\n",aMask)
    ###
    #ibasisremap = np.zeros(nbas).astype(int)      #contains index of functions of an atom l-block
    #ibasisremap,nM,nR = partBasis(aMask,nM,nR,ibasisremap)
    #E  = np.identity(nbas)
    #N_NMB = np.zeros((nbas,nbas))
    #M2 = mapMatrix(E,ibasisremap)
    ##
    #print("Occupations before M2","\n",dummy)
    #print("N_NMB before M2","\n",N_NMB)
    #dummy = np.matmul(dummy,M2.T)
    #N_NMB = np.matmul(N_aosc,T4)
    #N_NMB = np.matmul(N_NMB,T5)         #Transformation from ao to ryd
    #N_NMB = np.matmul(N_NMB,M2.T)       #Mapping NMB|NRB
    #print("Occupations after M2","\n",dummy)
    #print("N_NMB after M2","\n",N_NMB)
    #print("nM",nM,"nR",nR)
    #print("M2\n",M2)
    #print("===== Pryry before M2 =====","\n",Pryry)
    #print("===== Sryry before M2 =====","\n",Sryry)
    #Pryry  = np.matmul(M2,np.matmul(Pryry,M2.T))
    #Sryry  = np.matmul(M2,np.matmul(Sryry,M2.T))
    #print("===== Pryry after M2 =====","\n",Pryry)
    #print("===== Sryry after M2 =====","\n",Sryry)
    ###
    #rydmask = [True for i in range(nbas)] #Initialize NRB set as all functions there
    #irydbasisremap=np.zeros(nbas).astype(int)
    ##
    #wthresh = 1.0e-4  #Here, Ryd functions have lower occupations than wthresh.
    #nhiryd  = 0
    #nloryd  = 0
    #for i in range(nbas):
    #  if dummy[i] < wthresh:
    #    rydmask[i] = False
    #print("===== Rydmask, false on index of loRyd functions =====","\n",rydmask)
    ##
    #irydbasisremap,nhiryd,nloryd = partBasis(rydmask,nhiryd,nloryd,irydbasisremap)
    #print("================= irydbasisremap indexing vector ===================","\n",irydbasisremap)
    #nhiryd = nbas-nloryd-nM
    #up=nM+nhiryd
    #print("nM:",nM)
    #print("nhiryd:",nhiryd)
    #print("up = nM+nhiryd:",up)
    #print("nloryd:",nloryd)
    #print("nbas:",nbas)
    #print("nM+nhiryd+nloryd:",nM+nhiryd+nloryd)
    #if nM+nhiryd+nloryd != nbas:
    #  print("Found a problem in mapping hi-Ryd and lo-Ryd space")
    #  print("Mismatch in functions balance","nbas:",nbas,"nM+nhiryd+nloryd:",nM+nhiryd+nloryd)
    #print("===================================================")
    ##
    #E=np.identity(nbas)
    #M3=mapMatrix(E,irydbasisremap)
    #print("Occupations before M3",dummy)
    #print("N_NMB before M3","\n",N_NMB)
    #dummy = np.matmul(dummy,M3.T)
    #N_NMB = np.matmul(N_NMB,M3.T)
    #print("Occupations after M3","\n",dummy)
    #print("N_NMB after M3","\n",N_NMB)
    #print("M3\n",M3)
    #Pryry = np.matmul(np.matmul(M3,Pryry),M3.T)
    #Sryry = np.matmul(np.matmul(M3,Sryry),M3.T)
    #print("===== Pryry after M3 =====","\n",Pryry)
    #print("===== Sryry after M3 =====","\n",Sryry)
    #print("===================================================")
    ##
    #print("===== Ow Weighted Symm Orth for NMB-NMB space =====")
    #Ow = np.identity(nbas)
    #trial = np.zeros((nM,nM))
    #for i in range(nM):
    #  for j in range(nM):
    #    trial[i,j] = S_ij(N_NMB[:,i],N_NMB[:,j],S)
    #print("===== This is a trial overlap matrix in NMB-NMB space =====","\n",trial)
    #print("===== Sryry[0:nM,0:nM] and trial are the same matrix ???? =====","\n",Sryry[0:nM,0:nM])
    #Ow[0:nM,0:nM] = symmOrthMat(Sryry[0:nM,0:nM],dummy[0:nM])
    #print("===== O_w^(NMB) =====","\n",Ow)
    #T6 = Ow.copy()
    #print("===== T6 NMB =====","\n",T6)
    #Pmm = np.zeros((nbas,nbas))
    #Smm = np.zeros((nbas,nbas))
    #Pmm = np.matmul(T6.T,np.matmul(Pryry,T6))
    #Smm = np.matmul(T6.T,np.matmul(Sryry,T6))
    #print("===== Pmm after T6 NMB-NMB =====","\n",Pmm)
    #print("===== Smm after T6 NMB-NMB =====","\n",Smm)
    #print("===================================================")
    #print("===== Ow Weighted Symm Orth for hiRyd-hiRyd space =")
    #Ow = np.identity(nbas)
    #trial = np.zeros((nhiryd,nhiryd))
    #for i in range(nM,up):
    #  for j in range(nM,up):
    #    trial[i-nM,j-nM] = S_ij(N_NMB[:,i],N_NMB[:,j],S)
    #print("===== This is a trial overlap matrix in hiRyd-hiRyd space =====","\n",trial)
    #print("===== Sryry[nM:up,nM:up] and trial are the same matrix ???? =====","\n",Sryry[nM:up,nM:up])
    #if nhiryd > 0:
    #  Ow[nM:up,nM:up] = symmOrthMat(Sryry[nM:up,nM:up],dummy[nM:up])
    #print("===== O_w^(hiRyd) =====","\n",Ow)
    #T7 = Ow.copy()
    #print("===== T7 =====","\n",T7.T)
    #Phrhr = np.zeros((nbas,nbas))
    #Shrhr = np.zeros((nbas,nbas))
    #Phrhr=np.matmul(T7.T,np.matmul(Pmm,T7))
    #Shrhr=np.matmul(T7.T,np.matmul(Smm,T7))
    #print("===== Phrhr after T7 hi-Ryd =====","\n",Phrhr)
    #print("===== Shrhr after T7 hi-Ryd =====","\n",Shrhr)
    #print("====================================================================")
    ################### Schmidt orthogonalize the loRyd basis ################
    #Psclory = np.zeros((nbas,nbas))
    #Ssclory = np.zeros((nbas,nbas))
    #N_slor = N_NMB.copy()

    Molecular point group: c1
  Charge       = 0
  Multiplicity = 1
  Basis Set: STO-3G
    Blend: STO-3G
  Basis Set: (STO-3G AUX)
    Blend: DEF2-UNIVERSAL-JKFIT
  @RHF Final Energy:    -7.86031308547222
    Total Energy =                         -7.8603130854722210
 Dipole X            :          0.0000000            0.0000000            0.0000000
 Dipole Y            :          0.0000000            0.0000000            0.0000000
 Dipole Z            :          1.9157416            0.0000000            1.9157416
 Magnitude           :                                                    1.9157416
  Basis Set: STO-3G
    Blend: STO-3G
    Molecular point group: c1

    Geometry (in Angstrom), charge = 0, multiplicity = 1:

       Center              X                  Y                   Z               Mass
    ------------   -----------------  -----------------  -----------------  -----------------
         C            0.000000000000     0.000000000000     0.000000000000    12.000000000000
         C            0.000000000000     0.000000000000     1.311190000000    12.000000000000
         C            0.000000000000     0.000000000000    -1.311190000000    12.000000000000
         H            0.000000000000     0.926778000000     1.876642000000     1.007825032230
         H            0.000000000000    -0.926778000000     1.876642000000     1.007825032230
         H            0.926778000000     0.000000000000    -1.876642000000     1.007825032230
         H           -0.926778000000     0.000000000000    -1.876642000000     1.007825032230

  Charge       = 0
  Multiplicity = 1
  Basis Set: STO-3G
    Blend: STO-3G
  Basis Set: (STO-3G AUX)
    Blend: DEF2-UNIVERSAL-JKFIT

    Orbital Energies [Eh]
    ---------------------

    Doubly Occupied:

       1A    -11.029418     2A    -11.023503     3A    -11.023490
       4A     -1.006900     5A     -0.894154     6A     -0.660208
       7A     -0.561879     8A     -0.561879     9A     -0.558734
      10A     -0.316962    11A     -0.316962

  @RHF Final Energy:  -114.41991591725504

   => Energetics <=

    Nuclear Repulsion Energy =             59.0178324216954593
    One-Electron Energy =                -270.9673240004180457
    Two-Electron Energy =                  97.5295756614675469
    Total Energy =                       -114.4199159172550395
 Dipole X            :         -0.0000000            0.0000000           -0.0000000
 Dipole Y            :         -0.0000000            0.0000000           -0.0000000
 Dipole Z            :          0.0000000           -0.0000000            0.0000000
 Magnitude           :                                                    0.0000000
  Basis Set: STO-3G
    Blend: STO-3G
*** Psi4 exiting successfully. Buy a developer a beer!
