 Gaussian 16, Revision C.01,
 Gaussian 16:  ES64L-G16RevC.01  3-Jul-2019

 -----------------------------------------------------------------
 #RHF/STO-3G int=nobasistransform Symmetry=None 5D 7F Pop=NBO7Read
 -----------------------------------------------------------------

 ---------
 mol45-NBO
 ---------
 Symbolic Z-matrix:
 Charge =  0 Multiplicity = 1

                          Input orientation:
 ---------------------------------------------------------------------
 Center     Atomic      Atomic             Coordinates (Angstroms)
 Number     Number       Type             X           Y           Z
 ---------------------------------------------------------------------
      1         14           0        0.000000    0.000000    0.560846
      2          8           0        0.000000    0.000000   -0.981480
 ---------------------------------------------------------------------

 SCF Done:  E(RHF) =  -359.393867194     A.U. after   10 cycles

 Alpha  occ. eigenvalues --  -67.86577 -20.10350  -5.88332  -3.89990  -3.89969
 Alpha  occ. eigenvalues --   -3.89969  -1.14090  -0.47753  -0.29508  -0.29508
 Alpha  occ. eigenvalues --   -0.27847
 Alpha virt. eigenvalues --    0.28532   0.28532   0.65572

 Mulliken charges:
               1
     1  Si   0.483351
     2  O   -0.483351
 Sum of Mulliken charges =   0.00000

 Dipole moment (field-independent basis, Debye):
    X=             -0.0000    Y=              0.0000    Z=              1.9779  Tot=              1.9779
 Quadrupole moment (field-independent basis, Debye-Ang):
   XX=            -13.0391   YY=            -13.0391   ZZ=            -18.3428
   XY=             -0.0000   XZ=             -0.0000   YZ=             -0.0000

 Summary of Natural Population Analysis:

                                     Natural Population
             Natural    ---------------------------------------------
  Atom No    Charge        Core      Valence    Rydberg      Total
 --------------------------------------------------------------------
   Si  1    0.61088      9.99997     3.38916    0.00000    13.38912
    O  2   -0.61088      2.00000     6.61088    0.00000     8.61088
 ====================================================================
 * Total *  0.00000     11.99997    10.00003    0.00000    22.00000

 Normal termination of Gaussian 16 at Mon Nov 18 15:41:32 2024.
