 Gaussian 16, Revision C.01,
 Gaussian 16:  ES64L-G16RevC.01  3-Jul-2019

 -----------------------------------------------------------------
 #RHF/6-31G* int=nobasistransform Symmetry=None 5D 7F Pop=NBO7Read
 -----------------------------------------------------------------

 ----------
 mol122-NBO
 ----------
 Symbolic Z-matrix:
 Charge =  0 Multiplicity = 1

                          Input orientation:
 ---------------------------------------------------------------------
 Center     Atomic      Atomic             Coordinates (Angstroms)
 Number     Number       Type             X           Y           Z
 ---------------------------------------------------------------------
      1          6           0       -0.161594   -1.638625    0.000000
      2          6           0        0.584957   -0.524961    0.000000
      3          6           0        0.000000    0.782253    0.000000
      4          1           0       -1.245203   -1.598169    0.000000
      5          1           0        0.305973   -2.616405    0.000000
      6          1           0        1.669863   -0.572107    0.000000
      7          7           0       -0.467259    1.867811    0.000000
 ---------------------------------------------------------------------

 SCF Done:  E(RHF) =  -169.761223510     A.U. after   14 cycles

 Alpha  occ. eigenvalues --  -15.58994 -11.29250 -11.29001 -11.28252  -1.20939
 Alpha  occ. eigenvalues --   -1.09492  -0.88346  -0.72578  -0.65684  -0.58478
 Alpha  occ. eigenvalues --   -0.54865  -0.50893  -0.45762  -0.38946
 Alpha virt. eigenvalues --    0.09246   0.18260   0.26183   0.27281   0.29721
 Alpha virt. eigenvalues --    0.29902   0.40788   0.48139   0.49020   0.72286
 Alpha virt. eigenvalues --    0.73589   0.76992   0.81404   0.81573   0.87144

 Mulliken charges:
               1
     1  C   -0.337094
     2  C   -0.186371
     3  C    0.238514
     4  H    0.227373
     5  H    0.214981
     6  H    0.248739
     7  N   -0.406142
 Sum of Mulliken charges =  -0.00000

 Dipole moment (field-independent basis, Debye):
    X=              1.2394    Y=             -4.1999    Z=             -0.0000  Tot=              4.3790
 Quadrupole moment (field-independent basis, Debye-Ang):
   XX=            -21.4574   YY=            -26.7105   ZZ=            -24.9677
   XY=              2.1711   XZ=              0.0000   YZ=              0.0000

 Summary of Natural Population Analysis:

                                     Natural Population
             Natural    ---------------------------------------------
  Atom No    Charge        Core      Valence    Rydberg      Total
 --------------------------------------------------------------------
    C  1   -0.29958      1.99999     4.28030    0.01928     6.29958
    C  2   -0.36428      1.99999     4.34536    0.01892     6.36428
    C  3    0.30900      1.99999     3.65564    0.03536     5.69100
    H  4    0.22885      0.00000     0.77070    0.00045     0.77115
    H  5    0.22638      0.00000     0.77322    0.00040     0.77362
    H  6    0.26160      0.00000     0.73771    0.00069     0.73840
    N  7   -0.36197      1.99999     5.33962    0.02236     7.36197
 ====================================================================
 * Total *  0.00000      7.99997    19.90257    0.09746    28.00000

 Normal termination of Gaussian 16 at Mon Nov 18 16:41:12 2024.
