 Gaussian 16, Revision C.01,
 Gaussian 16:  ES64L-G16RevC.01  3-Jul-2019

 -----------------------
 #RHF/4-31G Pop=NBO7Read
 -----------------------

 -----
 NBO-a
 -----
 Symbolic Z-matrix:
 Charge =  0 Multiplicity = 1

                         Standard orientation:
 ---------------------------------------------------------------------
 Center     Atomic      Atomic             Coordinates (Angstroms)
 Number     Number       Type             X           Y           Z
 ---------------------------------------------------------------------
      1          8           0        0.000000    0.000000    0.277152
      2          3           0        0.000000    0.000000   -1.155108
      3          1           0        0.000000    0.000000    1.248109
 ---------------------------------------------------------------------

 SCF Done:  E(RHF) =  -82.8057775810     A.U. after    9 cycles

 The electronic state is 1-SG.
 Alpha  occ. eigenvalues --  -20.39281  -2.39061  -1.16944  -0.54471  -0.38352
 Alpha  occ. eigenvalues --   -0.38352
 Alpha virt. eigenvalues --    0.02901   0.09868   0.09868   0.13109   0.27364
 Alpha virt. eigenvalues --    0.30527   0.30527   0.36227   0.53317   1.29024
 Alpha virt. eigenvalues --    1.41945   1.41945   1.69836   2.04300

 Mulliken charges:
               1
     1  O   -1.017539
     2  Li   0.650150
     3  H    0.367389
 Sum of Mulliken charges =   0.00000

 Dipole moment (field-independent basis, Debye):
    X=              0.0000    Y=              0.0000    Z=             -3.5462  Tot=              3.5462
 Quadrupole moment (field-independent basis, Debye-Ang):
   XX=             -9.1329   YY=             -9.1329   ZZ=              0.4031
   XY=              0.0000   XZ=              0.0000   YZ=              0.0000

 Summary of Natural Population Analysis:

                                     Natural Population
             Natural    ---------------------------------------------
  Atom No    Charge        Core      Valence    Rydberg      Total
 --------------------------------------------------------------------
    O  1   -1.38788      1.99996     7.38497    0.00295     9.38788
   Li  2    0.92165      1.99978     0.01143    0.06714     2.07835
    H  3    0.46623      0.00000     0.53309    0.00069     0.53377
 ====================================================================
 * Total *  0.00000      3.99973     7.92950    0.07077    12.00000

 Normal termination of Gaussian 16 at Wed Jul 24 13:57:01 2024.
