 Gaussian 16, Revision C.01,
 Gaussian 16:  ES64L-G16RevC.01  3-Jul-2019

 -----------------------------------------------------------------
 #RHF/STO-3G int=nobasistransform Symmetry=None 5D 7F Pop=NBO7Read
 -----------------------------------------------------------------

 ---------
 mol83-NBO
 ---------
 Symbolic Z-matrix:
 Charge =  0 Multiplicity = 1

                          Input orientation:
 ---------------------------------------------------------------------
 Center     Atomic      Atomic             Coordinates (Angstroms)
 Number     Number       Type             X           Y           Z
 ---------------------------------------------------------------------
      1          6           0        0.000000    0.000000    2.071955
      2          6           0        0.000000    0.000000    0.609970
      3          6           0        0.000000    0.000000   -0.609970
      4          6           0        0.000000    0.000000   -2.071955
      5          1           0        0.000000    1.020696    2.464562
      6          1           0       -0.883949   -0.510348    2.464562
      7          1           0        0.883949   -0.510348    2.464562
      8          1           0        0.000000    1.020696   -2.464562
      9          1           0        0.883949   -0.510348   -2.464562
     10          1           0       -0.883949   -0.510348   -2.464562
 ---------------------------------------------------------------------

 SCF Done:  E(RHF) =  -153.033539284     A.U. after    8 cycles

 Alpha  occ. eigenvalues --  -11.06834 -11.06832 -10.97669 -10.97416  -0.99906
 Alpha  occ. eigenvalues --   -0.95353  -0.85137  -0.60074  -0.55583  -0.55583
 Alpha  occ. eigenvalues --   -0.54033  -0.54033  -0.52984  -0.29669  -0.29669
 Alpha virt. eigenvalues --    0.39017   0.39017   0.58276   0.69887   0.69887
 Alpha virt. eigenvalues --    0.72529   0.72924   0.74816   0.74816   0.77592
 Alpha virt. eigenvalues --    1.47087

 Mulliken charges:
               1
     1  C   -0.184722
     2  C   -0.056980
     3  C   -0.056980
     4  C   -0.184722
     5  H    0.080567
     6  H    0.080567
     7  H    0.080567
     8  H    0.080567
     9  H    0.080567
    10  H    0.080567
 Sum of Mulliken charges =  -0.00000

 Dipole moment (field-independent basis, Debye):
    X=              0.0000    Y=              0.0000    Z=             -0.0000  Tot=              0.0000
 Quadrupole moment (field-independent basis, Debye-Ang):
   XX=            -23.6734   YY=            -23.6734   ZZ=            -19.2599
   XY=             -0.0000   XZ=              0.0000   YZ=              0.0000

 Summary of Natural Population Analysis:

                                     Natural Population
             Natural    ---------------------------------------------
  Atom No    Charge        Core      Valence    Rydberg      Total
 --------------------------------------------------------------------
    C  1   -0.16126      2.00000     4.16126    0.00000     6.16126
    C  2   -0.04084      2.00000     4.04085    0.00000     6.04084
    C  3   -0.04084      2.00000     4.04085    0.00000     6.04084
    C  4   -0.16126      2.00000     4.16126    0.00000     6.16126
    H  5    0.06737      0.00000     0.93263    0.00000     0.93263
    H  6    0.06737      0.00000     0.93263    0.00000     0.93263
    H  7    0.06737      0.00000     0.93263    0.00000     0.93263
    H  8    0.06737      0.00000     0.93263    0.00000     0.93263
    H  9    0.06737      0.00000     0.93263    0.00000     0.93263
    H 10    0.06737      0.00000     0.93263    0.00000     0.93263
 ====================================================================
 * Total *  0.00000      7.99999    22.00001    0.00000    30.00000

 Normal termination of Gaussian 16 at Mon Nov 18 15:41:34 2024.
