 Gaussian 16, Revision C.01,
 Gaussian 16:  ES64L-G16RevC.01  3-Jul-2019

 -----------------------------------------------------------------
 #RHF/6-31G* int=nobasistransform Symmetry=None 5D 7F Pop=NBO7Read
 -----------------------------------------------------------------

 ---------
 mol55-NBO
 ---------
 Symbolic Z-matrix:
 Charge =  0 Multiplicity = 1

                          Input orientation:
 ---------------------------------------------------------------------
 Center     Atomic      Atomic             Coordinates (Angstroms)
 Number     Number       Type             X           Y           Z
 ---------------------------------------------------------------------
      1          5           0        0.000000    0.000000    0.000000
      2          9           0        0.000000    1.321760    0.000000
      3          9           0        1.144678   -0.660880    0.000000
      4          9           0       -1.144678   -0.660880    0.000000
 ---------------------------------------------------------------------

 SCF Done:  E(RHF) =  -323.189522188     A.U. after    9 cycles

 Alpha  occ. eigenvalues --  -26.33419 -26.33419 -26.33417  -7.78617  -1.67365
 Alpha  occ. eigenvalues --   -1.63215  -1.63215  -0.84647  -0.79905  -0.79905
 Alpha  occ. eigenvalues --   -0.75019  -0.68784  -0.68784  -0.67576  -0.67576
 Alpha  occ. eigenvalues --   -0.65064
 Alpha virt. eigenvalues --    0.19749   0.25039   0.40232   0.40232   0.53991
 Alpha virt. eigenvalues --    0.74407   0.75000   0.75000   1.38428   1.38428
 Alpha virt. eigenvalues --    1.40642   1.40642   1.40691   1.54756   1.54756

 Mulliken charges:
               1
     1  B    1.131782
     2  F   -0.377260
     3  F   -0.377261
     4  F   -0.377261
 Sum of Mulliken charges =  -0.00000

 Dipole moment (field-independent basis, Debye):
    X=             -0.0000    Y=              0.0000    Z=             -0.0000  Tot=              0.0000
 Quadrupole moment (field-independent basis, Debye-Ang):
   XX=            -21.6763   YY=            -21.6763   ZZ=            -17.1310
   XY=              0.0000   XZ=              0.0000   YZ=              0.0000

 Summary of Natural Population Analysis:

                                     Natural Population
             Natural    ---------------------------------------------
  Atom No    Charge        Core      Valence    Rydberg      Total
 --------------------------------------------------------------------
    B  1    1.69695      1.99999     1.26891    0.03415     3.30305
    F  2   -0.56565      1.99999     7.55255    0.01311     9.56565
    F  3   -0.56565      1.99999     7.55255    0.01311     9.56565
    F  4   -0.56565      1.99999     7.55255    0.01311     9.56565
 ====================================================================
 * Total *  0.00000      7.99998    23.92655    0.07347    32.00000

 Normal termination of Gaussian 16 at Mon Nov 18 16:40:08 2024.
