 Gaussian 16, Revision C.01,
 Gaussian 16:  ES64L-G16RevC.01  3-Jul-2019

 -----------------------------------------------------------------
 #RHF/6-31G* int=nobasistransform Symmetry=None 5D 7F Pop=NBO7Read
 -----------------------------------------------------------------

 ---------
 mol50-NBO
 ---------
 Symbolic Z-matrix:
 Charge =  0 Multiplicity = 1

                          Input orientation:
 ---------------------------------------------------------------------
 Center     Atomic      Atomic             Coordinates (Angstroms)
 Number     Number       Type             X           Y           Z
 ---------------------------------------------------------------------
      1         14           0        0.000000    0.000000    1.167683
      2         14           0        0.000000    0.000000   -1.167683
      3          1           0        0.000000    1.393286    1.686020
      4          1           0       -1.206621   -0.696643    1.686020
      5          1           0        1.206621   -0.696643    1.686020
      6          1           0        0.000000   -1.393286   -1.686020
      7          1           0       -1.206621    0.696643   -1.686020
      8          1           0        1.206621    0.696643   -1.686020
 ---------------------------------------------------------------------

 SCF Done:  E(RHF) =  -581.302596114     A.U. after    9 cycles

 Alpha  occ. eigenvalues --  -68.75235 -68.75233  -6.11946  -6.11931  -4.22456
 Alpha  occ. eigenvalues --   -4.22451  -4.22451  -4.22444  -4.22444  -4.22385
 Alpha  occ. eigenvalues --   -0.75804  -0.67819  -0.49949  -0.49949  -0.47185
 Alpha  occ. eigenvalues --   -0.47185  -0.40550
 Alpha virt. eigenvalues --    0.14123   0.14142   0.14142   0.20661   0.20753
 Alpha virt. eigenvalues --    0.20753   0.28762   0.30198   0.37468   0.37468
 Alpha virt. eigenvalues --    0.41584   0.41584   0.42461   0.43207   0.58045

 Mulliken charges:
               1
     1  Si   0.386402
     2  Si   0.386402
     3  H   -0.128801
     4  H   -0.128801
     5  H   -0.128801
     6  H   -0.128801
     7  H   -0.128801
     8  H   -0.128801
 Sum of Mulliken charges =  -0.00000

 Dipole moment (field-independent basis, Debye):
    X=             -0.0000    Y=             -0.0000    Z=              0.0000  Tot=              0.0000
 Quadrupole moment (field-independent basis, Debye-Ang):
   XX=            -31.7573   YY=            -31.7573   ZZ=            -33.1799
   XY=              0.0000   XZ=              0.0000   YZ=             -0.0000

 Summary of Natural Population Analysis:

                                     Natural Population
             Natural    ---------------------------------------------
  Atom No    Charge        Core      Valence    Rydberg      Total
 --------------------------------------------------------------------
   Si  1    0.57652      9.99999     3.37521    0.04827    13.42348
   Si  2    0.57652      9.99999     3.37521    0.04827    13.42348
    H  3   -0.19217      0.00000     1.19165    0.00052     1.19217
    H  4   -0.19217      0.00000     1.19165    0.00052     1.19217
    H  5   -0.19217      0.00000     1.19165    0.00052     1.19217
    H  6   -0.19217      0.00000     1.19165    0.00052     1.19217
    H  7   -0.19217      0.00000     1.19165    0.00052     1.19217
    H  8   -0.19217      0.00000     1.19165    0.00052     1.19217
 ====================================================================
 * Total *  0.00000     19.99999    13.90034    0.09967    34.00000

 Normal termination of Gaussian 16 at Mon Nov 18 16:40:05 2024.
