 Gaussian 16, Revision C.01,
 Gaussian 16:  ES64L-G16RevC.01  3-Jul-2019

 -----------------------------------------------------------------
 #RHF/6-31G* int=nobasistransform Symmetry=None 5D 7F Pop=NBO7Read
 -----------------------------------------------------------------

 ---------
 mol86-NBO
 ---------
 Symbolic Z-matrix:
 Charge =  0 Multiplicity = 1

                          Input orientation:
 ---------------------------------------------------------------------
 Center     Atomic      Atomic             Coordinates (Angstroms)
 Number     Number       Type             X           Y           Z
 ---------------------------------------------------------------------
      1          6           0        0.000000   -0.672762    0.811217
      2          6           0        0.000000    0.672762    0.811217
      3          6           0        0.000000   -0.781980   -0.696648
      4          6           0        0.000000    0.781980   -0.696648
      5          1           0        0.000000   -1.422393    1.597763
      6          1           0        0.000000    1.422393    1.597763
      7          1           0       -0.889310   -1.239242   -1.142591
      8          1           0        0.889310   -1.239242   -1.142591
      9          1           0        0.889310    1.239242   -1.142591
     10          1           0       -0.889310    1.239242   -1.142591
 ---------------------------------------------------------------------

 SCF Done:  E(RHF) =  -154.897899095     A.U. after   10 cycles

 Alpha  occ. eigenvalues --  -11.22506 -11.22353 -11.22154 -11.22104  -1.14334
 Alpha  occ. eigenvalues --   -0.89293  -0.87455  -0.70359  -0.67024  -0.62057
 Alpha  occ. eigenvalues --   -0.52758  -0.50316  -0.46091  -0.45423  -0.34356
 Alpha virt. eigenvalues --    0.18561   0.25865   0.28923   0.29358   0.30051
 Alpha virt. eigenvalues --    0.31465   0.35096   0.37404   0.38720   0.49705
 Alpha virt. eigenvalues --    0.59715   0.68427   0.74703   0.76425   0.77705

 Mulliken charges:
               1
     1  C   -0.179764
     2  C   -0.179764
     3  C   -0.346133
     4  C   -0.346133
     5  H    0.186353
     6  H    0.186353
     7  H    0.169772
     8  H    0.169772
     9  H    0.169772
    10  H    0.169772
 Sum of Mulliken charges =  -0.00000

 Dipole moment (field-independent basis, Debye):
    X=              0.0000    Y=             -0.0000    Z=             -0.0292  Tot=              0.0292
 Quadrupole moment (field-independent basis, Debye-Ang):
   XX=            -26.2275   YY=            -24.0765   ZZ=            -24.6306
   XY=             -0.0000   XZ=             -0.0000   YZ=             -0.0000

 Summary of Natural Population Analysis:

                                     Natural Population
             Natural    ---------------------------------------------
  Atom No    Charge        Core      Valence    Rydberg      Total
 --------------------------------------------------------------------
    C  1   -0.21351      1.99999     4.19229    0.02123     6.21351
    C  2   -0.21351      1.99999     4.19229    0.02123     6.21351
    C  3   -0.43877      1.99999     4.42313    0.01565     6.43877
    C  4   -0.43877      1.99999     4.42313    0.01565     6.43877
    H  5    0.21668      0.00000     0.78283    0.00050     0.78332
    H  6    0.21668      0.00000     0.78283    0.00050     0.78332
    H  7    0.21780      0.00000     0.78081    0.00138     0.78220
    H  8    0.21780      0.00000     0.78081    0.00138     0.78220
    H  9    0.21780      0.00000     0.78081    0.00138     0.78220
    H 10    0.21780      0.00000     0.78081    0.00138     0.78220
 ====================================================================
 * Total *  0.00000      7.99997    21.91975    0.08028    30.00000

 Normal termination of Gaussian 16 at Mon Nov 18 16:40:42 2024.
