 Gaussian 16, Revision C.01,
 Gaussian 16:  ES64L-G16RevC.01  3-Jul-2019

 -----------------------------------------------------------------
 #RHF/STO-3G int=nobasistransform Symmetry=None 5D 7F Pop=NBO7Read
 -----------------------------------------------------------------

 ---------
 mol60-NBO
 ---------
 Symbolic Z-matrix:
 Charge =  0 Multiplicity = 1

                          Input orientation:
 ---------------------------------------------------------------------
 Center     Atomic      Atomic             Coordinates (Angstroms)
 Number     Number       Type             X           Y           Z
 ---------------------------------------------------------------------
      1          6           0        0.000000    0.000000    0.000000
      2         17           0        1.021340    1.021340    1.021340
      3         17           0       -1.021340   -1.021340    1.021340
      4         17           0       -1.021340    1.021340   -1.021340
      5         17           0        1.021340   -1.021340   -1.021340
 ---------------------------------------------------------------------

 SCF Done:  E(RHF) =  -1855.67195010     A.U. after    8 cycles

 Alpha  occ. eigenvalues -- -103.78861-103.78861-103.78861-103.78860 -11.32253
 Alpha  occ. eigenvalues --  -10.46669 -10.46669 -10.46669 -10.46620  -7.91116
 Alpha  occ. eigenvalues --   -7.91116  -7.91116  -7.91094  -7.90489  -7.90489
 Alpha  occ. eigenvalues --   -7.90489  -7.90446  -7.90446  -7.90446  -7.90432
 Alpha  occ. eigenvalues --   -7.90432  -1.25340  -1.07287  -1.07287  -1.07287
 Alpha  occ. eigenvalues --   -0.77889  -0.62006  -0.62006  -0.62006  -0.49295
 Alpha  occ. eigenvalues --   -0.49295  -0.44322  -0.44322  -0.44322  -0.43567
 Alpha  occ. eigenvalues --   -0.43567  -0.43567
 Alpha virt. eigenvalues --    0.21381   0.29189   0.29189   0.29189

 Mulliken charges:
               1
     1  C    0.123520
     2  Cl  -0.030880
     3  Cl  -0.030880
     4  Cl  -0.030880
     5  Cl  -0.030880
 Sum of Mulliken charges =  -0.00000

 Dipole moment (field-independent basis, Debye):
    X=             -0.0000    Y=              0.0000    Z=             -0.0000  Tot=              0.0000
 Quadrupole moment (field-independent basis, Debye-Ang):
   XX=            -53.7647   YY=            -53.7647   ZZ=            -53.7647
   XY=             -0.0000   XZ=              0.0000   YZ=              0.0000

 Summary of Natural Population Analysis:

                                     Natural Population
             Natural    ---------------------------------------------
  Atom No    Charge        Core      Valence    Rydberg      Total
 --------------------------------------------------------------------
    C  1    0.34409      2.00000     3.65591    0.00000     5.65591
   Cl  2   -0.08602     10.00000     7.08602    0.00000    17.08602
   Cl  3   -0.08602     10.00000     7.08602    0.00000    17.08602
   Cl  4   -0.08602     10.00000     7.08602    0.00000    17.08602
   Cl  5   -0.08602     10.00000     7.08602    0.00000    17.08602
 ====================================================================
 * Total *  0.00000     42.00000    32.00000    0.00000    74.00000

 Normal termination of Gaussian 16 at Mon Nov 18 15:41:21 2024.
