 Gaussian 16, Revision C.01,
 Gaussian 16:  ES64L-G16RevC.01  3-Jul-2019

 -----------------------------------------------------------------
 #RHF/6-31G* int=nobasistransform Symmetry=None 5D 7F Pop=NBO7Read
 -----------------------------------------------------------------

 ----------
 mol119-NBO
 ----------
 Symbolic Z-matrix:
 Charge =  0 Multiplicity = 1

                          Input orientation:
 ---------------------------------------------------------------------
 Center     Atomic      Atomic             Coordinates (Angstroms)
 Number     Number       Type             X           Y           Z
 ---------------------------------------------------------------------
      1          6           0        0.000000    0.437714    0.000000
      2          6           0        1.191923   -0.145087    0.000000
      3          9           0       -1.148929   -0.278332    0.000000
      4          1           0       -0.186445    1.505778    0.000000
      5          1           0        1.291348   -1.222833    0.000000
      6          1           0        2.083924    0.466279    0.000000
 ---------------------------------------------------------------------

 SCF Done:  E(RHF) =  -176.879239211     A.U. after   12 cycles

 Alpha  occ. eigenvalues --  -26.29694 -11.32669 -11.23232  -1.60886  -1.04480
 Alpha  occ. eigenvalues --   -0.82728  -0.72481  -0.67406  -0.67356  -0.58082
 Alpha  occ. eigenvalues --   -0.55263  -0.37778
 Alpha virt. eigenvalues --    0.18138   0.26480   0.28041   0.30906   0.39995
 Alpha virt. eigenvalues --    0.50166   0.70732   0.74752   0.79907   0.83088
 Alpha virt. eigenvalues --    0.86200   0.91492   1.10073   1.12117   1.19408

 Mulliken charges:
               1
     1  C    0.298718
     2  C   -0.476782
     3  F   -0.423505
     4  H    0.195738
     5  H    0.209151
     6  H    0.196680
 Sum of Mulliken charges =  -0.00000

 Dipole moment (field-independent basis, Debye):
    X=              1.3291    Y=              0.9866    Z=             -0.0000  Tot=              1.6552
 Quadrupole moment (field-independent basis, Debye-Ang):
   XX=            -17.4483   YY=            -15.1384   ZZ=            -18.8221
   XY=             -0.8543   XZ=              0.0000   YZ=              0.0000

 Summary of Natural Population Analysis:

                                     Natural Population
             Natural    ---------------------------------------------
  Atom No    Charge        Core      Valence    Rydberg      Total
 --------------------------------------------------------------------
    C  1    0.30509      1.99999     3.66552    0.02939     5.69491
    C  2   -0.53854      1.99999     4.51769    0.02085     6.53854
    F  3   -0.41148      1.99999     7.40211    0.00938     9.41148
    H  4    0.18917      0.00000     0.80992    0.00091     0.81083
    H  5    0.22992      0.00000     0.76929    0.00078     0.77008
    H  6    0.22584      0.00000     0.77378    0.00038     0.77416
 ====================================================================
 * Total *  0.00000      5.99998    17.93832    0.06170    24.00000

 Normal termination of Gaussian 16 at Mon Nov 18 16:41:10 2024.
