 Gaussian 16, Revision C.01,
 Gaussian 16:  ES64L-G16RevC.01  3-Jul-2019

 -----------------------------------------------------------------
 #RHF/6-31G* int=nobasistransform Symmetry=None 5D 7F Pop=NBO7Read
 -----------------------------------------------------------------

 ----------
 mol103-NBO
 ----------
 Symbolic Z-matrix:
 Charge =  0 Multiplicity = 1

                          Input orientation:
 ---------------------------------------------------------------------
 Center     Atomic      Atomic             Coordinates (Angstroms)
 Number     Number       Type             X           Y           Z
 ---------------------------------------------------------------------
      1          6           0       -0.931209   -0.083866    0.000000
      2          8           0       -0.711019   -1.278209    0.000000
      3          8           0        0.000000    0.886841    0.000000
      4          1           0       -1.928360    0.374598    0.000000
      5          6           0        1.356899    0.397287    0.000000
      6          1           0        1.980134    1.288164    0.000000
      7          1           0        1.541121   -0.206172    0.889397
      8          1           0        1.541121   -0.206172   -0.889397
 ---------------------------------------------------------------------

 SCF Done:  E(RHF) =  -227.784364915     A.U. after   13 cycles

 Alpha  occ. eigenvalues --  -20.61773 -20.56340 -11.38943 -11.28969  -1.46171
 Alpha  occ. eigenvalues --   -1.36202  -0.98747  -0.81966  -0.73354  -0.67388
 Alpha  occ. eigenvalues --   -0.67152  -0.59212  -0.54947  -0.53654  -0.46441
 Alpha  occ. eigenvalues --   -0.45976
 Alpha virt. eigenvalues --    0.17759   0.25229   0.27088   0.30720   0.31640
 Alpha virt. eigenvalues --    0.32269   0.44482   0.48936   0.71341   0.73689
 Alpha virt. eigenvalues --    0.77011   0.77074   0.82771   0.94961   0.98972

 Mulliken charges:
               1
     1  C    0.593760
     2  O   -0.556291
     3  O   -0.624159
     4  H    0.194597
     5  C   -0.181966
     6  H    0.189233
     7  H    0.192414
     8  H    0.192414
 Sum of Mulliken charges =   0.00000

 Dipole moment (field-independent basis, Debye):
    X=              0.8049    Y=              1.7571    Z=             -0.0000  Tot=              1.9327
 Quadrupole moment (field-independent basis, Debye-Ang):
   XX=            -18.4884   YY=            -29.0363   ZZ=            -22.8790
   XY=             -1.5465   XZ=             -0.0000   YZ=              0.0000

 Summary of Natural Population Analysis:

                                     Natural Population
             Natural    ---------------------------------------------
  Atom No    Charge        Core      Valence    Rydberg      Total
 --------------------------------------------------------------------
    C  1    0.82368      1.99999     3.12655    0.04977     5.17632
    O  2   -0.69985      1.99999     6.67779    0.02207     8.69985
    O  3   -0.65639      1.99999     6.63833    0.01807     8.65639
    H  4    0.15275      0.00000     0.84509    0.00216     0.84725
    C  5   -0.24573      1.99999     4.22636    0.01938     6.24573
    H  6    0.20964      0.00000     0.78978    0.00058     0.79036
    H  7    0.20795      0.00000     0.79082    0.00123     0.79205
    H  8    0.20795      0.00000     0.79082    0.00123     0.79205
 ====================================================================
 * Total *  0.00000      7.99997    23.88552    0.11451    32.00000

 Normal termination of Gaussian 16 at Mon Nov 18 16:40:50 2024.
