 Gaussian 16, Revision C.01,
 Gaussian 16:  ES64L-G16RevC.01  3-Jul-2019

 -----------------------------------------------------------------
 #RHF/STO-3G int=nobasistransform Symmetry=None 5D 7F Pop=NBO7Read
 -----------------------------------------------------------------

 ---------
 mol79-NBO
 ---------
 Symbolic Z-matrix:
 Charge =  0 Multiplicity = 1

                          Input orientation:
 ---------------------------------------------------------------------
 Center     Atomic      Atomic             Coordinates (Angstroms)
 Number     Number       Type             X           Y           Z
 ---------------------------------------------------------------------
      1          6           0        1.291290    0.133682    0.000000
      2          6           0        0.000000    0.479159    0.000000
      3          1           0        1.601160   -0.907420    0.000000
      4          1           0        2.080800    0.877337    0.000000
      5          1           0       -0.263221    1.536098    0.000000
      6          6           0       -1.139757   -0.492341    0.000000
      7          1           0       -0.776859   -1.523291    0.000000
      8          1           0       -1.775540   -0.352861    0.880420
      9          1           0       -1.775540   -0.352861   -0.880420
 ---------------------------------------------------------------------

 SCF Done:  E(RHF) =  -115.658521545     A.U. after   10 cycles

 Alpha  occ. eigenvalues --  -11.04406 -11.02574 -11.00691  -1.01182  -0.88556
 Alpha  occ. eigenvalues --   -0.71291  -0.59715  -0.53705  -0.53570  -0.47841
 Alpha  occ. eigenvalues --   -0.44477  -0.30539
 Alpha virt. eigenvalues --    0.32033   0.61056   0.67805   0.69730   0.71796
 Alpha virt. eigenvalues --    0.72342   0.75183   0.94295   1.02239

 Mulliken charges:
               1
     1  C   -0.136419
     2  C   -0.045437
     3  H    0.055924
     4  H    0.058435
     5  H    0.055936
     6  C   -0.182262
     7  H    0.064056
     8  H    0.064883
     9  H    0.064883
 Sum of Mulliken charges =   0.00000

 Dipole moment (field-independent basis, Debye):
    X=             -0.2550    Y=             -0.0173    Z=             -0.0000  Tot=              0.2555
 Quadrupole moment (field-independent basis, Debye-Ang):
   XX=            -18.3812   YY=            -18.1916   ZZ=            -19.5638
   XY=             -0.1249   XZ=              0.0000   YZ=              0.0000

 Summary of Natural Population Analysis:

                                     Natural Population
             Natural    ---------------------------------------------
  Atom No    Charge        Core      Valence    Rydberg      Total
 --------------------------------------------------------------------
    C  1   -0.09635      2.00000     4.09635    0.00000     6.09635
    C  2    0.00340      2.00000     3.99660    0.00000     5.99660
    H  3    0.03171      0.00000     0.96829    0.00000     0.96829
    H  4    0.03393      0.00000     0.96607    0.00000     0.96607
    H  5    0.02784      0.00000     0.97216    0.00000     0.97216
    C  6   -0.15266      2.00000     4.15266    0.00000     6.15266
    H  7    0.04956      0.00000     0.95044    0.00000     0.95044
    H  8    0.05129      0.00000     0.94871    0.00000     0.94871
    H  9    0.05129      0.00000     0.94871    0.00000     0.94871
 ====================================================================
 * Total *  0.00000      6.00000    18.00000    0.00000    24.00000

 Normal termination of Gaussian 16 at Mon Nov 18 15:41:33 2024.
