 Gaussian 16, Revision C.01,
 Gaussian 16:  ES64L-G16RevC.01  3-Jul-2019

 -----------------------------------------------------------------
 #RHF/STO-3G int=nobasistransform Symmetry=None 5D 7F Pop=NBO7Read
 -----------------------------------------------------------------

 ----------
 mol109-NBO
 ----------
 Symbolic Z-matrix:
 Charge =  0 Multiplicity = 1

                          Input orientation:
 ---------------------------------------------------------------------
 Center     Atomic      Atomic             Coordinates (Angstroms)
 Number     Number       Type             X           Y           Z
 ---------------------------------------------------------------------
      1          6           0        0.000000    0.000000   -1.219340
      2          6           0        0.000000    0.000000    0.098920
      3          1           0        0.000000    0.938847   -1.753224
      4          1           0        0.000000   -0.938847   -1.753224
      5          8           0        0.000000    0.000000    1.278620
 ---------------------------------------------------------------------

 SCF Done:  E(RHF) =  -149.725522999     A.U. after   12 cycles

 Alpha  occ. eigenvalues --  -20.37311 -11.16528 -11.00015  -1.39668  -0.97228
 Alpha  occ. eigenvalues --   -0.66815  -0.59032  -0.57900  -0.56727  -0.46426
 Alpha  occ. eigenvalues --   -0.27263
 Alpha virt. eigenvalues --    0.26116   0.34946   0.61345   0.71907   0.83464
 Alpha virt. eigenvalues --    1.28263

 Mulliken charges:
               1
     1  C   -0.242123
     2  C    0.260959
     3  H    0.083745
     4  H    0.083745
     5  O   -0.186327
 Sum of Mulliken charges =  -0.00000

 Dipole moment (field-independent basis, Debye):
    X=              0.0000    Y=              0.0000    Z=             -0.7711  Tot=              0.7711
 Quadrupole moment (field-independent basis, Debye-Ang):
   XX=            -16.3463   YY=            -14.2402   ZZ=            -17.7899
   XY=             -0.0000   XZ=              0.0000   YZ=             -0.0000

 Summary of Natural Population Analysis:

                                     Natural Population
             Natural    ---------------------------------------------
  Atom No    Charge        Core      Valence    Rydberg      Total
 --------------------------------------------------------------------
    C  1   -0.33206      2.00000     4.33206    0.00000     6.33206
    C  2    0.39971      2.00000     3.60029    0.00000     5.60029
    H  3    0.07286      0.00000     0.92714    0.00000     0.92714
    H  4    0.07286      0.00000     0.92714    0.00000     0.92714
    O  5   -0.21337      2.00000     6.21337    0.00000     8.21337
 ====================================================================
 * Total *  0.00000      5.99999    16.00001    0.00000    22.00000

 Normal termination of Gaussian 16 at Mon Nov 18 15:41:27 2024.
