 Gaussian 16, Revision C.01,
 Gaussian 16:  ES64L-G16RevC.01  3-Jul-2019

 -----------------------
 #RHF/4-31G Pop=NBO7Read
 -----------------------

 -----
 NBO-a
 -----
 Symbolic Z-matrix:
 Charge =  0 Multiplicity = 1

                         Standard orientation:
 ---------------------------------------------------------------------
 Center     Atomic      Atomic             Coordinates (Angstroms)
 Number     Number       Type             X           Y           Z
 ---------------------------------------------------------------------
      1          3           0        0.000000    0.000000    1.348212
      2          3           0        0.000000    0.000000   -1.348212
 ---------------------------------------------------------------------

 SCF Done:  E(RHF) =  -14.8603229078     A.U. after    9 cycles

 The electronic state is 1-SGG.
 Alpha  occ. eigenvalues --   -2.43545  -2.43517  -0.17558
 Alpha virt. eigenvalues --    0.02113   0.05139   0.05139   0.07035   0.10123
 Alpha virt. eigenvalues --    0.10123   0.15954   0.22617   0.23976   0.23976
 Alpha virt. eigenvalues --    0.29454   0.29813   0.29813   0.31473   0.64938

 Mulliken charges:
               1
     1  Li  -0.000000
     2  Li  -0.000000
 Sum of Mulliken charges =  -0.00000

 Dipole moment (field-independent basis, Debye):
    X=             -0.0000    Y=             -0.0000    Z=              0.0000  Tot=              0.0000
 Quadrupole moment (field-independent basis, Debye-Ang):
   XX=            -14.7557   YY=            -14.7557   ZZ=             -2.7280
   XY=             -0.0000   XZ=             -0.0000   YZ=              0.0000

 Summary of Natural Population Analysis:

                                     Natural Population
             Natural    ---------------------------------------------
  Atom No    Charge        Core      Valence    Rydberg      Total
 --------------------------------------------------------------------
   Li  1    0.00000      1.99999     0.97586    0.02415     3.00000
   Li  2    0.00000      1.99999     0.97586    0.02415     3.00000
 ====================================================================
 * Total *  0.00000      3.99997     1.95172    0.04831     6.00000

 Normal termination of Gaussian 16 at Wed Jul 24 13:56:59 2024.
