 Gaussian 16, Revision C.01,
 Gaussian 16:  ES64L-G16RevC.01  3-Jul-2019

 ------------------------
 #RHF/6-31G* Pop=NBO7Read
 ------------------------

 -----
 NBO-a
 -----
 Symbolic Z-matrix:
 Charge =  0 Multiplicity = 1

                         Standard orientation:
 ---------------------------------------------------------------------
 Center     Atomic      Atomic             Coordinates (Angstroms)
 Number     Number       Type             X           Y           Z
 ---------------------------------------------------------------------
      1          3           0        0.000000    0.000000    1.348212
      2          3           0        0.000000    0.000000   -1.348212
 ---------------------------------------------------------------------

 SCF Done:  E(RHF) =  -14.8665653334     A.U. after    9 cycles

 The electronic state is 1-SGG.
 Alpha  occ. eigenvalues --   -2.44296  -2.44265  -0.17801
 Alpha virt. eigenvalues --    0.01659   0.04545   0.04545   0.06244   0.09164
 Alpha virt. eigenvalues --    0.09164   0.13858   0.19176   0.20897   0.20897
 Alpha virt. eigenvalues --    0.21442   0.26124   0.26623   0.26623   0.47933

 Mulliken charges:
               1
     1  Li  -0.000000
     2  Li  -0.000000
 Sum of Mulliken charges =  -0.00000

 Dipole moment (field-independent basis, Debye):
    X=             -0.0000    Y=              0.0000    Z=              0.0000  Tot=              0.0000
 Quadrupole moment (field-independent basis, Debye-Ang):
   XX=            -15.5023   YY=            -15.5023   ZZ=             -2.9285
   XY=             -0.0000   XZ=             -0.0000   YZ=              0.0000

 Summary of Natural Population Analysis:

                                     Natural Population
             Natural    ---------------------------------------------
  Atom No    Charge        Core      Valence    Rydberg      Total
 --------------------------------------------------------------------
   Li  1    0.00000      1.99999     0.97354    0.02647     3.00000
   Li  2    0.00000      1.99999     0.97354    0.02647     3.00000
 ====================================================================
 * Total *  0.00000      3.99998     1.94707    0.05295     6.00000

 Normal termination of Gaussian 16 at Wed Jul 24 12:08:04 2024.
