 Gaussian 16, Revision C.01,
 Gaussian 16:  ES64L-G16RevC.01  3-Jul-2019

 -----------------------------------------------------------------
 #RHF/6-31G* int=nobasistransform Symmetry=None 5D 7F Pop=NBO7Read
 -----------------------------------------------------------------

 ---------
 mol63-NBO
 ---------
 Symbolic Z-matrix:
 Charge =  0 Multiplicity = 1

                          Input orientation:
 ---------------------------------------------------------------------
 Center     Atomic      Atomic             Coordinates (Angstroms)
 Number     Number       Type             X           Y           Z
 ---------------------------------------------------------------------
      1          8           0        0.000000    0.000000    1.330715
      2          6           0        0.000000    0.000000    0.144358
      3          9           0        0.000000    1.069490   -0.639548
      4          9           0        0.000000   -1.069490   -0.639548
 ---------------------------------------------------------------------

 SCF Done:  E(RHF) =  -311.607556525     A.U. after   12 cycles

 Alpha  occ. eigenvalues --  -26.38851 -26.38847 -20.63002 -11.54645  -1.74847
 Alpha  occ. eigenvalues --   -1.67445  -1.46818  -0.94741  -0.85159  -0.80473
 Alpha  occ. eigenvalues --   -0.79512  -0.71778  -0.69529  -0.69447  -0.56770
 Alpha  occ. eigenvalues --   -0.55059
 Alpha virt. eigenvalues --    0.15988   0.28074   0.45249   0.51693   0.66234
 Alpha virt. eigenvalues --    0.67133   0.68381   0.88121   1.09477   1.22954
 Alpha virt. eigenvalues --    1.25418   1.41058   1.42472   1.44563   1.51824

 Mulliken charges:
               1
     1  O   -0.477932
     2  C    1.187098
     3  F   -0.354583
     4  F   -0.354583
 Sum of Mulliken charges =  -0.00000

 Dipole moment (field-independent basis, Debye):
    X=             -0.0000    Y=             -0.0000    Z=             -1.2353  Tot=              1.2353
 Quadrupole moment (field-independent basis, Debye-Ang):
   XX=            -18.3436   YY=            -21.0429   ZZ=            -23.3720
   XY=              0.0000   XZ=             -0.0000   YZ=              0.0000

 Summary of Natural Population Analysis:

                                     Natural Population
             Natural    ---------------------------------------------
  Atom No    Charge        Core      Valence    Rydberg      Total
 --------------------------------------------------------------------
    O  1   -0.65435      1.99999     6.62902    0.02534     8.65435
    C  2    1.44809      1.99999     2.49516    0.05675     4.55191
    F  3   -0.39687      1.99999     7.38583    0.01105     9.39687
    F  4   -0.39687      1.99999     7.38583    0.01105     9.39687
 ====================================================================
 * Total *  0.00000      7.99997    23.89584    0.10418    32.00000

 Normal termination of Gaussian 16 at Mon Nov 18 16:40:43 2024.
