 Gaussian 16, Revision C.01,
 Gaussian 16:  ES64L-G16RevC.01  3-Jul-2019

 -----------------------------------------------------------------
 #RHF/6-31G* int=nobasistransform Symmetry=None 5D 7F Pop=NBO7Read
 -----------------------------------------------------------------

 ---------
 mol49-NBO
 ---------
 Symbolic Z-matrix:
 Charge =  0 Multiplicity = 1

                          Input orientation:
 ---------------------------------------------------------------------
 Center     Atomic      Atomic             Coordinates (Angstroms)
 Number     Number       Type             X           Y           Z
 ---------------------------------------------------------------------
      1          9           0        0.000000    0.000000   -1.084794
      2         17           0        0.000000    0.000000    0.574302
 ---------------------------------------------------------------------

 SCF Done:  E(RHF) =  -558.815295643     A.U. after   10 cycles

 Alpha  occ. eigenvalues -- -104.92125 -26.35090 -10.65073  -8.12011  -8.11458
 Alpha  occ. eigenvalues --   -8.11458  -1.61837  -1.10250  -0.70883  -0.70883
 Alpha  occ. eigenvalues --   -0.67953  -0.49198  -0.49198
 Alpha virt. eigenvalues --    0.06364   0.50030   0.58408   0.59664   0.59664
 Alpha virt. eigenvalues --    1.01432   1.01432   1.08701   1.08701   1.20090
 Alpha virt. eigenvalues --    1.55753   1.55753   1.57147   2.03944   2.11494

 Mulliken charges:
               1
     1  F   -0.381589
     2  Cl   0.381589
 Sum of Mulliken charges =   0.00000

 Dipole moment (field-independent basis, Debye):
    X=             -0.0000    Y=              0.0000    Z=              1.3359  Tot=              1.3359
 Quadrupole moment (field-independent basis, Debye-Ang):
   XX=            -17.2277   YY=            -17.2277   ZZ=            -15.7609
   XY=              0.0000   XZ=             -0.0000   YZ=              0.0000

 Summary of Natural Population Analysis:

                                     Natural Population
             Natural    ---------------------------------------------
  Atom No    Charge        Core      Valence    Rydberg      Total
 --------------------------------------------------------------------
    F  1   -0.36313      2.00000     7.35180    0.01133     9.36313
   Cl  2    0.36313      9.99999     6.61274    0.02415    16.63687
 ====================================================================
 * Total *  0.00000     11.99998    13.96454    0.03548    26.00000

 Normal termination of Gaussian 16 at Mon Nov 18 16:40:06 2024.
