 Gaussian 16, Revision C.01,
 Gaussian 16:  ES64L-G16RevC.01  3-Jul-2019

 -----------------------------------------------------------------
 #RHF/STO-3G int=nobasistransform Symmetry=None 5D 7F Pop=NBO7Read
 -----------------------------------------------------------------

 ----------
 mol115-NBO
 ----------
 Symbolic Z-matrix:
 Charge =  0 Multiplicity = 1

                          Input orientation:
 ---------------------------------------------------------------------
 Center     Atomic      Atomic             Coordinates (Angstroms)
 Number     Number       Type             X           Y           Z
 ---------------------------------------------------------------------
      1          6           0        0.000000   -0.739719   -0.792334
      2         16           0        0.000000    0.000000    0.863474
      3          6           0        0.000000    0.739719   -0.792334
      4          1           0       -0.913940   -1.250142   -1.076894
      5          1           0        0.913940   -1.250142   -1.076894
      6          1           0        0.913940    1.250142   -1.076894
      7          1           0       -0.913940    1.250142   -1.076894
 ---------------------------------------------------------------------

 SCF Done:  E(RHF) =  -470.273867531     A.U. after    9 cycles

 Alpha  occ. eigenvalues --  -90.72109 -11.05021 -11.05018  -8.62816  -6.25969
 Alpha  occ. eigenvalues --   -6.25790  -6.25440  -1.07591  -0.78868  -0.75870
 Alpha  occ. eigenvalues --   -0.62151  -0.54032  -0.49195  -0.36043  -0.33811
 Alpha  occ. eigenvalues --   -0.24948
 Alpha virt. eigenvalues --    0.34905   0.49056   0.63374   0.67918   0.67930
 Alpha virt. eigenvalues --    0.76786   0.84556

 Mulliken charges:
               1
     1  C   -0.193071
     2  S    0.094017
     3  C   -0.193071
     4  H    0.073031
     5  H    0.073031
     6  H    0.073031
     7  H    0.073031
 Sum of Mulliken charges =   0.00000

 Dipole moment (field-independent basis, Debye):
    X=             -0.0000    Y=              0.0000    Z=             -0.8679  Tot=              0.8679
 Quadrupole moment (field-independent basis, Debye-Ang):
   XX=            -23.2399   YY=            -22.7395   ZZ=            -24.3647
   XY=             -0.0000   XZ=              0.0000   YZ=             -0.0000

 Summary of Natural Population Analysis:

                                     Natural Population
             Natural    ---------------------------------------------
  Atom No    Charge        Core      Valence    Rydberg      Total
 --------------------------------------------------------------------
    C  1   -0.12739      2.00000     4.12739    0.00000     6.12739
    S  2    0.06249      9.99996     5.93755    0.00000    15.93751
    C  3   -0.12739      2.00000     4.12739    0.00000     6.12739
    H  4    0.04807      0.00000     0.95193    0.00000     0.95193
    H  5    0.04807      0.00000     0.95193    0.00000     0.95193
    H  6    0.04807      0.00000     0.95193    0.00000     0.95193
    H  7    0.04807      0.00000     0.95193    0.00000     0.95193
 ====================================================================
 * Total *  0.00000     13.99996    18.00004    0.00000    32.00000

 Normal termination of Gaussian 16 at Mon Nov 18 15:41:30 2024.
