 Gaussian 16, Revision C.01,
 Gaussian 16:  ES64L-G16RevC.01  3-Jul-2019

 -----------------------------------------------------
 ##OPT=VeryTight Int=UltraFine RHF/STO-3G Pop=NBO7Read
 -----------------------------------------------------

 -------
 NBO-LiF
 -------
 Symbolic Z-matrix:
 Charge =  0 Multiplicity = 1

 SCF Done:  E(RHF) =  -105.373081934     A.U. after   10 cycles
 SCF Done:  E(RHF) =  -105.373081935     A.U. after    5 cycles
 SCF Done:  E(RHF) =  -105.373081935     A.U. after    5 cycles
 Optimization completed.
    -- Stationary point found.

                         Standard orientation:
 ---------------------------------------------------------------------
 Center     Atomic      Atomic             Coordinates (Angstroms)
 Number     Number       Type             X           Y           Z
 ---------------------------------------------------------------------
      1          3           0        0.000000    0.000000   -1.055268
      2          9           0        0.000000    0.000000    0.351756
 ---------------------------------------------------------------------

 The electronic state is 1-SG.
 Alpha  occ. eigenvalues --  -25.82034  -2.33686  -1.34072  -0.40674  -0.36629
 Alpha  occ. eigenvalues --   -0.36629
 Alpha virt. eigenvalues --    0.08606   0.24382   0.24382   0.40532

 Mulliken charges:
               1
     1  Li   0.225419
     2  F   -0.225419
 Sum of Mulliken charges =   0.00000

 Dipole moment (field-independent basis, Debye):
    X=              0.0000    Y=              0.0000    Z=             -3.1156  Tot=              3.1156
 Quadrupole moment (field-independent basis, Debye-Ang):
   XX=             -7.7819   YY=             -7.7819   ZZ=             -3.3930
   XY=              0.0000   XZ=              0.0000   YZ=              0.0000

 Summary of Natural Population Analysis:

                                     Natural Population
             Natural    ---------------------------------------------
  Atom No    Charge        Core      Valence    Rydberg      Total
 --------------------------------------------------------------------
   Li  1    0.52538      1.99979     0.03213    0.44271     2.47462
    F  2   -0.52538      2.00000     7.52538    0.00000     9.52538
 ====================================================================
 * Total *  0.00000      3.99979     7.55751    0.44271    12.00000

 Normal termination of Gaussian 16 at Wed Jul 24 10:54:15 2024.
