 Gaussian 16, Revision C.01,
 Gaussian 16:  ES64L-G16RevC.01  3-Jul-2019

 -----------------------------------------------------------------
 #RHF/6-31G* int=nobasistransform Symmetry=None 5D 7F Pop=NBO7Read
 -----------------------------------------------------------------

 ---------
 mol16-NBO
 ---------
 Symbolic Z-matrix:
 Charge =  0 Multiplicity = 1

                          Input orientation:
 ---------------------------------------------------------------------
 Center     Atomic      Atomic             Coordinates (Angstroms)
 Number     Number       Type             X           Y           Z
 ---------------------------------------------------------------------
      1         14           0        0.000000    0.000000    0.000000
      2          1           0        0.856135    0.856135    0.856135
      3          1           0       -0.856135   -0.856135    0.856135
      4          1           0       -0.856135    0.856135   -0.856135
      5          1           0        0.856135   -0.856135   -0.856135
 ---------------------------------------------------------------------

 SCF Done:  E(RHF) =  -291.223939342     A.U. after    8 cycles

 Alpha  occ. eigenvalues --  -68.75734  -6.12301  -4.22815  -4.22815  -4.22815
 Alpha  occ. eigenvalues --   -0.73009  -0.48527  -0.48527  -0.48527
 Alpha virt. eigenvalues --    0.16746   0.16746   0.16746   0.28204   0.34511
 Alpha virt. eigenvalues --    0.39720   0.39720   0.39720   0.79956   0.79956
 Alpha virt. eigenvalues --    0.86609   0.86609   0.86609   1.22905   1.43384

 Mulliken charges:
               1
     1  Si   0.547635
     2  H   -0.136909
     3  H   -0.136909
     4  H   -0.136909
     5  H   -0.136909
 Sum of Mulliken charges =   0.00000

 Dipole moment (field-independent basis, Debye):
    X=              0.0000    Y=             -0.0000    Z=              0.0000  Tot=              0.0000
 Quadrupole moment (field-independent basis, Debye-Ang):
   XX=            -16.7535   YY=            -16.7535   ZZ=            -16.7535
   XY=              0.0000   XZ=             -0.0000   YZ=             -0.0000

 Summary of Natural Population Analysis:

                                     Natural Population
             Natural    ---------------------------------------------
  Atom No    Charge        Core      Valence    Rydberg      Total
 --------------------------------------------------------------------
   Si  1    0.83771     10.00000     3.11284    0.04946    13.16229
    H  2   -0.20943      0.00000     1.20919    0.00024     1.20943
    H  3   -0.20943      0.00000     1.20919    0.00024     1.20943
    H  4   -0.20943      0.00000     1.20919    0.00024     1.20943
    H  5   -0.20943      0.00000     1.20919    0.00024     1.20943
 ====================================================================
 * Total *  0.00000     10.00000     7.94960    0.05041    18.00000

 Normal termination of Gaussian 16 at Mon Nov 18 16:40:08 2024.
