 Gaussian 16, Revision C.01,
 Gaussian 16:  ES64L-G16RevC.01  3-Jul-2019

 -----------------------------------------------------------------
 #RHF/6-31G* int=nobasistransform Symmetry=None 5D 7F Pop=NBO7Read
 -----------------------------------------------------------------

 ---------
 mol36-NBO
 ---------
 Symbolic Z-matrix:
 Charge =  0 Multiplicity = 1

                          Input orientation:
 ---------------------------------------------------------------------
 Center     Atomic      Atomic             Coordinates (Angstroms)
 Number     Number       Type             X           Y           Z
 ---------------------------------------------------------------------
      1          8           0        0.000000    0.734058   -0.052750
      2          8           0        0.000000   -0.734058   -0.052750
      3          1           0        0.839547    0.880752    0.422001
      4          1           0       -0.839547   -0.880752    0.422001
 ---------------------------------------------------------------------

 SCF Done:  E(RHF) =  -150.757756721     A.U. after   12 cycles

 Alpha  occ. eigenvalues --  -20.63220 -20.63193  -1.46145  -1.20820  -0.70603
 Alpha  occ. eigenvalues --   -0.69287  -0.59934  -0.51896  -0.47599
 Alpha virt. eigenvalues --    0.21490   0.21814   0.30098   1.04675   1.05030
 Alpha virt. eigenvalues --    1.10496   1.12713   1.22673   1.23206   1.29486
 Alpha virt. eigenvalues --    1.34337   1.60152   1.72030   1.78716   1.80680

 Mulliken charges:
               1
     1  O   -0.484000
     2  O   -0.484000
     3  H    0.484000
     4  H    0.484000
 Sum of Mulliken charges =   0.00000

 Dipole moment (field-independent basis, Debye):
    X=              0.0000    Y=             -0.0000    Z=              1.8580  Tot=              1.8580
 Quadrupole moment (field-independent basis, Debye-Ang):
   XX=             -8.8944   YY=            -11.2812   ZZ=            -11.6672
   XY=              3.2518   XZ=              0.0000   YZ=              0.0000

 Summary of Natural Population Analysis:

                                     Natural Population
             Natural    ---------------------------------------------
  Atom No    Charge        Core      Valence    Rydberg      Total
 --------------------------------------------------------------------
    O  1   -0.49431      1.99999     6.48023    0.01409     8.49431
    O  2   -0.49431      1.99999     6.48023    0.01409     8.49431
    H  3    0.49431      0.00000     0.50406    0.00163     0.50569
    H  4    0.49431      0.00000     0.50406    0.00163     0.50569
 ====================================================================
 * Total *  0.00000      3.99999    13.96858    0.03143    18.00000

 Normal termination of Gaussian 16 at Mon Nov 18 16:40:06 2024.
