 Gaussian 16, Revision C.01,
 Gaussian 16:  ES64L-G16RevC.01  3-Jul-2019

 -----------------------------------------------------------------
 #RHF/6-31G* int=nobasistransform Symmetry=None 5D 7F Pop=NBO7Read
 -----------------------------------------------------------------

 ---------
 mol24-NBO
 ---------
 Symbolic Z-matrix:
 Charge =  0 Multiplicity = 1

                          Input orientation:
 ---------------------------------------------------------------------
 Center     Atomic      Atomic             Coordinates (Angstroms)
 Number     Number       Type             X           Y           Z
 ---------------------------------------------------------------------
      1          6           0        0.000000    0.000000    0.667480
      2          6           0        0.000000    0.000000   -0.667480
      3          1           0        0.000000    0.922832    1.237695
      4          1           0        0.000000   -0.922832    1.237695
      5          1           0        0.000000    0.922832   -1.237695
      6          1           0        0.000000   -0.922832   -1.237695
 ---------------------------------------------------------------------

 SCF Done:  E(RHF) =  -78.0307215660     A.U. after    9 cycles

 Alpha  occ. eigenvalues --  -11.22687 -11.22524  -1.02666  -0.78816  -0.63621
 Alpha  occ. eigenvalues --   -0.58205  -0.50250  -0.37040
 Alpha virt. eigenvalues --    0.17934   0.26455   0.29143   0.30711   0.39077
 Alpha virt. eigenvalues --    0.49108   0.66853   0.76645   0.77598   0.86294
 Alpha virt. eigenvalues --    0.89039   0.95688   1.10925   1.15658   1.20743

 Mulliken charges:
               1
     1  C   -0.359517
     2  C   -0.359517
     3  H    0.179759
     4  H    0.179759
     5  H    0.179759
     6  H    0.179759
 Sum of Mulliken charges =   0.00000

 Dipole moment (field-independent basis, Debye):
    X=              0.0000    Y=              0.0000    Z=             -0.0000  Tot=              0.0000
 Quadrupole moment (field-independent basis, Debye-Ang):
   XX=            -15.4948   YY=            -12.2495   ZZ=            -11.9766
   XY=             -0.0000   XZ=              0.0000   YZ=              0.0000

 Summary of Natural Population Analysis:

                                     Natural Population
             Natural    ---------------------------------------------
  Atom No    Charge        Core      Valence    Rydberg      Total
 --------------------------------------------------------------------
    C  1   -0.41751      1.99999     4.39668    0.02084     6.41751
    C  2   -0.41751      1.99999     4.39668    0.02084     6.41751
    H  3    0.20876      0.00000     0.79065    0.00060     0.79124
    H  4    0.20876      0.00000     0.79065    0.00060     0.79124
    H  5    0.20876      0.00000     0.79065    0.00060     0.79124
    H  6    0.20876      0.00000     0.79065    0.00060     0.79124
 ====================================================================
 * Total *  0.00000      3.99999    11.95594    0.04407    16.00000

 Normal termination of Gaussian 16 at Mon Nov 18 16:40:08 2024.
