 Gaussian 16, Revision C.01,
 Gaussian 16:  ES64L-G16RevC.01  3-Jul-2019

 -----------------------------------------------------------------
 #RHF/6-31G* int=nobasistransform Symmetry=None 5D 7F Pop=NBO7Read
 -----------------------------------------------------------------

 ---------
 mol81-NBO
 ---------
 Symbolic Z-matrix:
 Charge =  0 Multiplicity = 1

                          Input orientation:
 ---------------------------------------------------------------------
 Center     Atomic      Atomic             Coordinates (Angstroms)
 Number     Number       Type             X           Y           Z
 ---------------------------------------------------------------------
      1          6           0        0.000000    0.000000    0.587716
      2          6           0        0.000000    1.266857   -0.260186
      3          6           0        0.000000   -1.266857   -0.260186
      4          1           0       -0.876898    0.000000    1.244713
      5          1           0        0.876898    0.000000    1.244713
      6          1           0        0.000000    2.166150    0.362066
      7          1           0        0.000000   -2.166150    0.362066
      8          1           0        0.883619    1.304234   -0.904405
      9          1           0       -0.883619    1.304234   -0.904405
     10          1           0       -0.883619   -1.304234   -0.904405
     11          1           0        0.883619   -1.304234   -0.904405
 ---------------------------------------------------------------------

 SCF Done:  E(RHF) =  -118.262616315     A.U. after   10 cycles

 Alpha  occ. eigenvalues --  -11.21477 -11.20692 -11.20688  -1.05337  -0.92429
 Alpha  occ. eigenvalues --   -0.79854  -0.62390  -0.59739  -0.54933  -0.53028
 Alpha  occ. eigenvalues --   -0.47486  -0.47481  -0.46669
 Alpha virt. eigenvalues --    0.23284   0.29537   0.29606   0.29616   0.31698
 Alpha virt. eigenvalues --    0.34143   0.34976   0.35353   0.39376   0.44290
 Alpha virt. eigenvalues --    0.71322   0.71604   0.74915   0.76108   0.78670

 Mulliken charges:
               1
     1  C   -0.307519
     2  C   -0.485289
     3  C   -0.485289
     4  H    0.157836
     5  H    0.157836
     6  H    0.163509
     7  H    0.163509
     8  H    0.158852
     9  H    0.158852
    10  H    0.158852
    11  H    0.158852
 Sum of Mulliken charges =  -0.00000

 Dipole moment (field-independent basis, Debye):
    X=              0.0000    Y=              0.0000    Z=              0.0651  Tot=              0.0651
 Quadrupole moment (field-independent basis, Debye-Ang):
   XX=            -21.5608   YY=            -22.3843   ZZ=            -21.9994
   XY=              0.0000   XZ=             -0.0000   YZ=              0.0000

 Summary of Natural Population Analysis:

                                     Natural Population
             Natural    ---------------------------------------------
  Atom No    Charge        Core      Valence    Rydberg      Total
 --------------------------------------------------------------------
    C  1   -0.42997      1.99999     4.41558    0.01440     6.42997
    C  2   -0.63826      1.99999     4.62464    0.01363     6.63826
    C  3   -0.63826      1.99999     4.62464    0.01363     6.63826
    H  4    0.21396      0.00000     0.78432    0.00173     0.78604
    H  5    0.21396      0.00000     0.78432    0.00173     0.78604
    H  6    0.21744      0.00000     0.78171    0.00085     0.78256
    H  7    0.21744      0.00000     0.78171    0.00085     0.78256
    H  8    0.21093      0.00000     0.78787    0.00121     0.78907
    H  9    0.21093      0.00000     0.78787    0.00121     0.78907
    H 10    0.21093      0.00000     0.78787    0.00121     0.78907
    H 11    0.21093      0.00000     0.78787    0.00121     0.78907
 ====================================================================
 * Total *  0.00000      5.99998    19.94837    0.05165    26.00000

 Normal termination of Gaussian 16 at Mon Nov 18 16:40:41 2024.
