 Gaussian 16, Revision C.01,
 Gaussian 16:  ES64L-G16RevC.01  3-Jul-2019

 -----------------------------------------------------------------
 #RHF/STO-3G int=nobasistransform Symmetry=None 5D 7F Pop=NBO7Read
 -----------------------------------------------------------------

 ---------
 mol37-NBO
 ---------
 Symbolic Z-matrix:
 Charge =  0 Multiplicity = 1

                          Input orientation:
 ---------------------------------------------------------------------
 Center     Atomic      Atomic             Coordinates (Angstroms)
 Number     Number       Type             X           Y           Z
 ---------------------------------------------------------------------
      1          9           0        0.000000    0.000000    0.710304
      2          9           0        0.000000    0.000000   -0.710304
 ---------------------------------------------------------------------

 SCF Done:  E(RHF) =  -195.965090485     A.U. after    5 cycles

 Alpha  occ. eigenvalues --  -26.03577 -26.03490  -1.61718  -1.34970  -0.60540
 Alpha  occ. eigenvalues --   -0.60540  -0.54748  -0.47022  -0.47022
 Alpha virt. eigenvalues --    0.33988

 Mulliken charges:
               1
     1  F   -0.000000
     2  F   -0.000000
 Sum of Mulliken charges =  -0.00000

 Dipole moment (field-independent basis, Debye):
    X=              0.0000    Y=             -0.0000    Z=              0.0000  Tot=              0.0000
 Quadrupole moment (field-independent basis, Debye-Ang):
   XX=             -7.8486   YY=             -7.8486   ZZ=             -7.6200
   XY=              0.0000   XZ=             -0.0000   YZ=              0.0000

 Summary of Natural Population Analysis:

                                     Natural Population
             Natural    ---------------------------------------------
  Atom No    Charge        Core      Valence    Rydberg      Total
 --------------------------------------------------------------------
    F  1    0.00000      2.00000     7.00000    0.00000     9.00000
    F  2    0.00000      2.00000     7.00000    0.00000     9.00000
 ====================================================================
 * Total *  0.00000      4.00000    14.00000    0.00000    18.00000

 Normal termination of Gaussian 16 at Mon Nov 18 15:41:18 2024.
