 Gaussian 16, Revision C.01,
 Gaussian 16:  ES64L-G16RevC.01  3-Jul-2019

 -----------------------------------------------------------------
 #RHF/6-31G* int=nobasistransform Symmetry=None 5D 7F Pop=NBO7Read
 -----------------------------------------------------------------

 ----------
 mol111-NBO
 ----------
 Symbolic Z-matrix:
 Charge =  0 Multiplicity = 1

                          Input orientation:
 ---------------------------------------------------------------------
 Center     Atomic      Atomic             Coordinates (Angstroms)
 Number     Number       Type             X           Y           Z
 ---------------------------------------------------------------------
      1          8           0        1.218055    0.361240    0.000000
      2          6           0        0.000000    0.464133    0.000000
      3          1           0       -0.477241    1.465295    0.000000
      4          6           0       -0.948102   -0.700138    0.000000
      5          1           0       -0.385946   -1.634236    0.000000
      6          1           0       -1.596321   -0.652475    0.880946
      7          1           0       -1.596321   -0.652475   -0.880946
 ---------------------------------------------------------------------

 SCF Done:  E(RHF) =  -152.912701575     A.U. after   12 cycles

 Alpha  occ. eigenvalues --  -20.56481 -11.33805 -11.23902  -1.38282  -1.02166
 Alpha  occ. eigenvalues --   -0.80074  -0.66958  -0.61817  -0.60334  -0.55926
 Alpha  occ. eigenvalues --   -0.49533  -0.42352
 Alpha virt. eigenvalues --    0.15161   0.24628   0.27611   0.30012   0.30329
 Alpha virt. eigenvalues --    0.41965   0.44846   0.74602   0.75919   0.79126
 Alpha virt. eigenvalues --    0.80607   0.90941   0.96137   0.98028   1.10944

 Mulliken charges:
               1
     1  O   -0.504773
     2  C    0.352688
     3  H    0.148126
     4  C   -0.598858
     5  H    0.215087
     6  H    0.193865
     7  H    0.193865
 Sum of Mulliken charges =  -0.00000

 Dipole moment (field-independent basis, Debye):
    X=             -3.1677    Y=             -0.1551    Z=             -0.0000  Tot=              3.1715
 Quadrupole moment (field-independent basis, Debye-Ang):
   XX=            -21.4106   YY=            -17.7026   ZZ=            -17.8546
   XY=             -1.0567   XZ=              0.0000   YZ=              0.0000

 Summary of Natural Population Analysis:

                                     Natural Population
             Natural    ---------------------------------------------
  Atom No    Charge        Core      Valence    Rydberg      Total
 --------------------------------------------------------------------
    O  1   -0.62003      1.99999     6.59893    0.02111     8.62003
    C  2    0.50941      1.99999     3.45122    0.03938     5.49059
    H  3    0.13883      0.00000     0.85823    0.00295     0.86117
    C  4   -0.75065      1.99999     4.73821    0.01245     6.75065
    H  5    0.24547      0.00000     0.75281    0.00173     0.75453
    H  6    0.23849      0.00000     0.76060    0.00091     0.76151
    H  7    0.23849      0.00000     0.76060    0.00091     0.76151
 ====================================================================
 * Total *  0.00000      5.99998    17.92058    0.07944    24.00000

 Normal termination of Gaussian 16 at Mon Nov 18 16:41:10 2024.
