 Gaussian 16, Revision C.01,
 Gaussian 16:  ES64L-G16RevC.01  3-Jul-2019

 -----------------------------------------------------------------
 #RHF/STO-3G int=nobasistransform Symmetry=None 5D 7F Pop=NBO7Read
 -----------------------------------------------------------------

 ---------
 mol71-NBO
 ---------
 Symbolic Z-matrix:
 Charge =  0 Multiplicity = 1

                          Input orientation:
 ---------------------------------------------------------------------
 Center     Atomic      Atomic             Coordinates (Angstroms)
 Number     Number       Type             X           Y           Z
 ---------------------------------------------------------------------
      1          9           0        0.000000    1.110576   -0.273729
      2          8           0        0.000000    0.000000    0.615890
      3          9           0        0.000000   -1.110576   -0.273729
 ---------------------------------------------------------------------

 SCF Done:  E(RHF) =  -269.785850310     A.U. after   10 cycles

 Alpha  occ. eigenvalues --  -26.03935 -26.03935 -20.45021  -1.61520  -1.50312
 Alpha  occ. eigenvalues --   -1.15022  -0.63585  -0.61467  -0.61367  -0.54339
 Alpha  occ. eigenvalues --   -0.50222  -0.47124  -0.41137
 Alpha virt. eigenvalues --    0.35015   0.39465

 Mulliken charges:
               1
     1  F   -0.014739
     2  O    0.029477
     3  F   -0.014739
 Sum of Mulliken charges =  -0.00000

 Dipole moment (field-independent basis, Debye):
    X=              0.0000    Y=              0.0000    Z=             -0.1824  Tot=              0.1824
 Quadrupole moment (field-independent basis, Debye-Ang):
   XX=            -12.4692   YY=            -12.3142   ZZ=            -12.5466
   XY=             -0.0000   XZ=              0.0000   YZ=              0.0000

 Summary of Natural Population Analysis:

                                     Natural Population
             Natural    ---------------------------------------------
  Atom No    Charge        Core      Valence    Rydberg      Total
 --------------------------------------------------------------------
    F  1   -0.03020      2.00000     7.03020    0.00000     9.03020
    O  2    0.06041      2.00000     5.93959    0.00000     7.93959
    F  3   -0.03020      2.00000     7.03020    0.00000     9.03020
 ====================================================================
 * Total *  0.00000      6.00000    20.00000    0.00000    26.00000

 Normal termination of Gaussian 16 at Mon Nov 18 15:41:27 2024.
