 Gaussian 16, Revision C.01,
 Gaussian 16:  ES64L-G16RevC.01  3-Jul-2019

 -----------------------------------------------------------------
 #RHF/STO-3G int=nobasistransform Symmetry=None 5D 7F Pop=NBO7Read
 -----------------------------------------------------------------

 ---------
 mol36-NBO
 ---------
 Symbolic Z-matrix:
 Charge =  0 Multiplicity = 1

                          Input orientation:
 ---------------------------------------------------------------------
 Center     Atomic      Atomic             Coordinates (Angstroms)
 Number     Number       Type             X           Y           Z
 ---------------------------------------------------------------------
      1          8           0        0.000000    0.734058   -0.052750
      2          8           0        0.000000   -0.734058   -0.052750
      3          1           0        0.839547    0.880752    0.422001
      4          1           0       -0.839547   -0.880752    0.422001
 ---------------------------------------------------------------------

 SCF Done:  E(RHF) =  -148.757521315     A.U. after   10 cycles

 Alpha  occ. eigenvalues --  -20.31303 -20.31232  -1.38255  -1.12518  -0.59147
 Alpha  occ. eigenvalues --   -0.58477  -0.48045  -0.39953  -0.36465
 Alpha virt. eigenvalues --    0.44767   0.61085   0.63691

 Mulliken charges:
               1
     1  O   -0.197316
     2  O   -0.197316
     3  H    0.197316
     4  H    0.197316
 Sum of Mulliken charges =  -0.00000

 Dipole moment (field-independent basis, Debye):
    X=              0.0000    Y=              0.0000    Z=              1.3869  Tot=              1.3869
 Quadrupole moment (field-independent basis, Debye-Ang):
   XX=             -8.4822   YY=            -10.3155   ZZ=            -10.1623
   XY=              2.1826   XZ=              0.0000   YZ=              0.0000

 Summary of Natural Population Analysis:

                                     Natural Population
             Natural    ---------------------------------------------
  Atom No    Charge        Core      Valence    Rydberg      Total
 --------------------------------------------------------------------
    O  1   -0.19956      1.99999     6.19957    0.00000     8.19956
    O  2   -0.19956      1.99999     6.19957    0.00000     8.19956
    H  3    0.19956      0.00000     0.80044    0.00000     0.80044
    H  4    0.19956      0.00000     0.80044    0.00000     0.80044
 ====================================================================
 * Total *  0.00000      3.99998    14.00002    0.00000    18.00000

 Normal termination of Gaussian 16 at Mon Nov 18 15:41:21 2024.
