 Gaussian 16, Revision C.01,
 Gaussian 16:  ES64L-G16RevC.01  3-Jul-2019

 ------------------------
 #RHF/6-31G* Pop=NBO7Read
 ------------------------

 -----
 NBO-a
 -----
 Symbolic Z-matrix:
 Charge =  0 Multiplicity = 1

                         Standard orientation:
 ---------------------------------------------------------------------
 Center     Atomic      Atomic             Coordinates (Angstroms)
 Number     Number       Type             X           Y           Z
 ---------------------------------------------------------------------
      1          3           0        0.000000    0.000000    0.377703
      2          1           0        0.000000    0.000000   -1.133109
 ---------------------------------------------------------------------

 SCF Done:  E(RHF) =  -7.97873188709     A.U. after    9 cycles

 The electronic state is 1-SG.
 Alpha  occ. eigenvalues --   -2.44502  -0.30484
 Alpha virt. eigenvalues --    0.01035   0.06102   0.06102   0.14249   0.19454
 Alpha virt. eigenvalues --    0.22289   0.22289   0.36811   0.57204   0.57204
 Alpha virt. eigenvalues --    0.58214   0.58214   0.80381   1.19112   1.39047

 Mulliken charges:
               1
     1  Li   0.152591
     2  H   -0.152591
 Sum of Mulliken charges =   0.00000

 Dipole moment (field-independent basis, Debye):
    X=              0.0000    Y=              0.0000    Z=              5.7421  Tot=              5.7421
 Quadrupole moment (field-independent basis, Debye-Ang):
   XX=             -5.3378   YY=             -5.3378   ZZ=             -6.7384
   XY=              0.0000   XZ=              0.0000   YZ=              0.0000

 Summary of Natural Population Analysis:

                                     Natural Population
             Natural    ---------------------------------------------
  Atom No    Charge        Core      Valence    Rydberg      Total
 --------------------------------------------------------------------
   Li  1    0.74128      1.99994     0.22748    0.03129     2.25872
    H  2   -0.74128      0.00000     1.74128    0.00001     1.74128
 ====================================================================
 * Total *  0.00000      1.99994     1.96876    0.03130     4.00000

 Normal termination of Gaussian 16 at Wed Jul 24 13:51:41 2024.
