 Gaussian 16, Revision C.01,
 Gaussian 16:  ES64L-G16RevC.01  3-Jul-2019

 -----------------------------------------------------------------
 #RHF/STO-3G int=nobasistransform Symmetry=None 5D 7F Pop=NBO7Read
 -----------------------------------------------------------------

 ---------
 mol43-NBO
 ---------
 Symbolic Z-matrix:
 Charge =  0 Multiplicity = 1

                          Input orientation:
 ---------------------------------------------------------------------
 Center     Atomic      Atomic             Coordinates (Angstroms)
 Number     Number       Type             X           Y           Z
 ---------------------------------------------------------------------
      1         17           0        0.000000    0.000000    1.007541
      2         17           0        0.000000    0.000000   -1.007541
 ---------------------------------------------------------------------

 SCF Done:  E(RHF) =  -909.113790776     A.U. after    5 cycles

 Alpha  occ. eigenvalues -- -103.79639-103.79634 -10.47415 -10.47200  -7.91946
 Alpha  occ. eigenvalues --   -7.91713  -7.91105  -7.91105  -7.91020  -7.91020
 Alpha  occ. eigenvalues --   -1.14993  -0.94112  -0.52856  -0.52362  -0.52362
 Alpha  occ. eigenvalues --   -0.40863  -0.40863
 Alpha virt. eigenvalues --    0.12194

 Mulliken charges:
               1
     1  Cl  -0.000000
     2  Cl  -0.000000
 Sum of Mulliken charges =  -0.00000

 Dipole moment (field-independent basis, Debye):
    X=              0.0000    Y=              0.0000    Z=              0.0000  Tot=              0.0000
 Quadrupole moment (field-independent basis, Debye-Ang):
   XX=            -23.3587   YY=            -23.3587   ZZ=            -22.5899
   XY=             -0.0000   XZ=             -0.0000   YZ=             -0.0000

 Summary of Natural Population Analysis:

                                     Natural Population
             Natural    ---------------------------------------------
  Atom No    Charge        Core      Valence    Rydberg      Total
 --------------------------------------------------------------------
   Cl  1    0.00000     10.00000     7.00000    0.00000    17.00000
   Cl  2    0.00000     10.00000     7.00000    0.00000    17.00000
 ====================================================================
 * Total *  0.00000     20.00000    14.00000    0.00000    34.00000

 Normal termination of Gaussian 16 at Mon Nov 18 15:41:20 2024.
