 Gaussian 16, Revision C.01,
 Gaussian 16:  ES64L-G16RevC.01  3-Jul-2019

 -----------------------------------------------------------------
 #RHF/6-31G* int=nobasistransform Symmetry=None 5D 7F Pop=NBO7Read
 -----------------------------------------------------------------

 ---------
 mol20-NBO
 ---------
 Symbolic Z-matrix:
 Charge =  0 Multiplicity = 1

                          Input orientation:
 ---------------------------------------------------------------------
 Center     Atomic      Atomic             Coordinates (Angstroms)
 Number     Number       Type             X           Y           Z
 ---------------------------------------------------------------------
      1         17           0        0.000000    0.000000    0.071110
      2          1           0        0.000000    0.000000   -1.208868
 ---------------------------------------------------------------------

 SCF Done:  E(RHF) =  -460.058195921     A.U. after    9 cycles

 Alpha  occ. eigenvalues -- -104.82923 -10.56973  -8.03876  -8.03457  -8.03457
 Alpha  occ. eigenvalues --   -1.11859  -0.62556  -0.47523  -0.47523
 Alpha virt. eigenvalues --    0.16482   0.55706   0.58553   0.62361   0.62361
 Alpha virt. eigenvalues --    0.91766   1.11501   1.11501   1.14134   1.14134
 Alpha virt. eigenvalues --    1.50451

 Mulliken charges:
               1
     1  Cl  -0.245427
     2  H    0.245427
 Sum of Mulliken charges =   0.00000

 Dipole moment (field-independent basis, Debye):
    X=             -0.0000    Y=             -0.0000    Z=             -1.5110  Tot=              1.5110
 Quadrupole moment (field-independent basis, Debye-Ang):
   XX=            -14.0552   YY=            -14.0552   ZZ=            -10.4124
   XY=              0.0000   XZ=              0.0000   YZ=              0.0000

 Summary of Natural Population Analysis:

                                     Natural Population
             Natural    ---------------------------------------------
  Atom No    Charge        Core      Valence    Rydberg      Total
 --------------------------------------------------------------------
   Cl  1   -0.28137      9.99999     7.26056    0.02082    17.28137
    H  2    0.28137      0.00000     0.71854    0.00009     0.71863
 ====================================================================
 * Total *  0.00000      9.99999     7.97910    0.02091    18.00000

 Normal termination of Gaussian 16 at Mon Nov 18 16:40:06 2024.
