 Gaussian 16, Revision C.01,
 Gaussian 16:  ES64L-G16RevC.01  3-Jul-2019

 ----------------------------------------------------------
 #OPT=VeryTight Int=UltraFine RHF/STO-3G 5D 7F Pop=NBO7Read
 ----------------------------------------------------------

 --------
 NBO-SiH4
 --------
 Symbolic Z-matrix:
 Charge =  0 Multiplicity = 1

 SCF Done:  E(RHF) =  -287.466452787     A.U. after    6 cycles
 SCF Done:  E(RHF) =  -287.677366690     A.U. after    7 cycles
 SCF Done:  E(RHF) =  -287.883990417     A.U. after    7 cycles
 SCF Done:  E(RHF) =  -287.917009164     A.U. after    7 cycles
 SCF Done:  E(RHF) =  -287.917281431     A.U. after    5 cycles
 SCF Done:  E(RHF) =  -287.917281445     A.U. after    4 cycles
 Optimization completed.
    -- Stationary point found.

                         Standard orientation:
 ---------------------------------------------------------------------
 Center     Atomic      Atomic             Coordinates (Angstroms)
 Number     Number       Type             X           Y           Z
 ---------------------------------------------------------------------
      1         14           0        0.000000    0.000000   -0.000000
      2          1           0       -1.082689   -0.040735   -0.920190
      3          1           0       -0.506095   -0.017942    1.328221
      4          1           0        0.751370    1.189180   -0.204740
      5          1           0        0.837414   -1.130503   -0.203291
 ---------------------------------------------------------------------

 The electronic state is 1-A.
 Alpha  occ. eigenvalues --  -67.96371  -5.95056  -3.97596  -3.97596  -3.97596
 Alpha  occ. eigenvalues --   -0.70558  -0.43509  -0.43509  -0.43509
 Alpha virt. eigenvalues --    0.58069   0.58108   0.58108   0.58108

 Mulliken charges:
               1
     1  Si   0.639469
     2  H   -0.159867
     3  H   -0.159867
     4  H   -0.159867
     5  H   -0.159867
 Sum of Mulliken charges =  -0.00000

 Dipole moment (field-independent basis, Debye):
    X=              0.0000    Y=             -0.0000    Z=             -0.0000  Tot=              0.0000
 Quadrupole moment (field-independent basis, Debye-Ang):
   XX=            -14.7923   YY=            -14.7923   ZZ=            -14.7923
   XY=              0.0000   XZ=              0.0000   YZ=             -0.0000

 Summary of Natural Population Analysis:

                                     Natural Population
             Natural    ---------------------------------------------
  Atom No    Charge        Core      Valence    Rydberg      Total
 --------------------------------------------------------------------
   Si  1    0.72070     10.00000     3.27930    0.00000    13.27930
    H  2   -0.18018      0.00000     1.18018    0.00000     1.18018
    H  3   -0.18018      0.00000     1.18018    0.00000     1.18018
    H  4   -0.18018      0.00000     1.18018    0.00000     1.18018
    H  5   -0.18018      0.00000     1.18018    0.00000     1.18018
 ====================================================================
 * Total *  0.00000     10.00000     8.00000    0.00000    18.00000

 Normal termination of Gaussian 16 at Fri Sep 27 11:22:00 2024.
