 Gaussian 16, Revision C.01,
 Gaussian 16:  ES64L-G16RevC.01  3-Jul-2019

 ------------------------
 #RHF/6-31G* Pop=NBO7Read
 ------------------------

 -----
 NBO-a
 -----
 Symbolic Z-matrix:
 Charge =  0 Multiplicity = 1

                         Standard orientation:
 ---------------------------------------------------------------------
 Center     Atomic      Atomic             Coordinates (Angstroms)
 Number     Number       Type             X           Y           Z
 ---------------------------------------------------------------------
      1          6           0        0.000000   -0.000000    0.609650
      2          4           0       -0.000000    0.000000   -1.080912
      3          1           0        0.815158   -0.591367    1.012572
      4          1           0       -0.919718   -0.410264    1.012572
      5          1           0        0.104560    1.001631    1.012572
      6          1           0       -0.000000    0.000000   -2.371966
 ---------------------------------------------------------------------

 SCF Done:  E(RHF) =  -54.8152520195     A.U. after   10 cycles

 The electronic state is 1-A.
 Alpha  occ. eigenvalues --  -11.17600  -4.64323  -0.91149  -0.53111  -0.53111
 Alpha  occ. eigenvalues --   -0.47232  -0.42362
 Alpha virt. eigenvalues --    0.11513   0.11513   0.19019   0.28767   0.31876
 Alpha virt. eigenvalues --    0.31876   0.35589   0.50979   0.50979   0.57069
 Alpha virt. eigenvalues --    0.66158   0.80558   0.80558   0.82840   1.05807

 Mulliken charges:
               1
     1  C   -0.722966
     2  Be   0.299773
     3  H    0.163099
     4  H    0.163099
     5  H    0.163099
     6  H   -0.066102
 Sum of Mulliken charges =  -0.00000

 Dipole moment (field-independent basis, Debye):
    X=              0.0000    Y=             -0.0000    Z=              0.3578  Tot=              0.3578
 Quadrupole moment (field-independent basis, Debye-Ang):
   XX=            -12.7948   YY=            -12.7948   ZZ=            -18.6546
   XY=             -0.0000   XZ=              0.0000   YZ=             -0.0000

 Summary of Natural Population Analysis:

                                     Natural Population
             Natural    ---------------------------------------------
  Atom No    Charge        Core      Valence    Rydberg      Total
 --------------------------------------------------------------------
    C  1   -1.43190      2.00000     5.40049    0.03142     7.43190
   Be  2    1.32463      1.99999     0.57467    0.10070     2.67537
    H  3    0.23097      0.00000     0.76825    0.00078     0.76903
    H  4    0.23097      0.00000     0.76825    0.00078     0.76903
    H  5    0.23097      0.00000     0.76825    0.00078     0.76903
    H  6   -0.58564      0.00000     1.58414    0.00150     1.58564
 ====================================================================
 * Total *  0.00000      3.99999     9.86405    0.13596    14.00000

 Normal termination of Gaussian 16 at Wed Jul 24 12:08:04 2024.
