 Gaussian 16, Revision C.01,
 Gaussian 16:  ES64L-G16RevC.01  3-Jul-2019

 -----------------------------------------------------------------
 #RHF/6-31G* int=nobasistransform Symmetry=None 5D 7F Pop=NBO7Read
 -----------------------------------------------------------------

 ----------
 mol113-NBO
 ----------
 Symbolic Z-matrix:
 Charge =  0 Multiplicity = 1

                          Input orientation:
 ---------------------------------------------------------------------
 Center     Atomic      Atomic             Coordinates (Angstroms)
 Number     Number       Type             X           Y           Z
 ---------------------------------------------------------------------
      1          6           0        1.168181   -0.400382    0.000000
      2          6           0        0.000000    0.559462    0.000000
      3          8           0       -1.190083   -0.227669    0.000000
      4          1           0       -1.946623    0.381525    0.000000
      5          1           0        0.042557    1.207508    0.886933
      6          1           0        0.042557    1.207508   -0.886933
      7          1           0        2.115891    0.144800    0.000000
      8          1           0        1.128599   -1.037234    0.885881
      9          1           0        1.128599   -1.037234   -0.885881
 ---------------------------------------------------------------------

 SCF Done:  E(RHF) =  -154.073000302     A.U. after   12 cycles

 Alpha  occ. eigenvalues --  -20.55261 -11.27206 -11.20816  -1.34785  -1.01034
 Alpha  occ. eigenvalues --   -0.83076  -0.69186  -0.64161  -0.56534  -0.52995
 Alpha  occ. eigenvalues --   -0.52174  -0.48568  -0.43680
 Alpha virt. eigenvalues --    0.22451   0.26362   0.30841   0.30964   0.32770
 Alpha virt. eigenvalues --    0.35030   0.39484   0.41296   0.72359   0.75961
 Alpha virt. eigenvalues --    0.79574   0.81547   0.90647   0.93907   1.08768

 Mulliken charges:
               1
     1  C   -0.498782
     2  C    0.027136
     3  O   -0.772515
     4  H    0.446803
     5  H    0.141117
     6  H    0.141117
     7  H    0.157188
     8  H    0.178968
     9  H    0.178968
 Sum of Mulliken charges =  -0.00000

 Dipole moment (field-independent basis, Debye):
    X=              0.0839    Y=              1.8016    Z=             -0.0000  Tot=              1.8035
 Quadrupole moment (field-independent basis, Debye-Ang):
   XX=            -17.6584   YY=            -19.8915   ZZ=            -20.1253
   XY=             -2.5519   XZ=             -0.0000   YZ=             -0.0000

 Summary of Natural Population Analysis:

                                     Natural Population
             Natural    ---------------------------------------------
  Atom No    Charge        Core      Valence    Rydberg      Total
 --------------------------------------------------------------------
    C  1   -0.66187      1.99999     4.64829    0.01358     6.66187
    C  2   -0.02775      1.99999     4.00919    0.01857     6.02775
    O  3   -0.80912      1.99999     6.79313    0.01600     8.80912
    H  4    0.48114      0.00000     0.51761    0.00125     0.51886
    H  5    0.17810      0.00000     0.81998    0.00192     0.82190
    H  6    0.17810      0.00000     0.81998    0.00192     0.82190
    H  7    0.21442      0.00000     0.78475    0.00083     0.78558
    H  8    0.22349      0.00000     0.77508    0.00143     0.77651
    H  9    0.22349      0.00000     0.77508    0.00143     0.77651
 ====================================================================
 * Total *  0.00000      5.99998    19.94308    0.05694    26.00000

 Normal termination of Gaussian 16 at Mon Nov 18 16:41:12 2024.
