 Gaussian 16, Revision C.01,
 Gaussian 16:  ES64L-G16RevC.01  3-Jul-2019

 -----------------------------------------------------------------
 #RHF/6-31G* int=nobasistransform Symmetry=None 5D 7F Pop=NBO7Read
 -----------------------------------------------------------------

 ----------
 mol127-NBO
 ----------
 Symbolic Z-matrix:
 Charge =  0 Multiplicity = 1

                          Input orientation:
 ---------------------------------------------------------------------
 Center     Atomic      Atomic             Coordinates (Angstroms)
 Number     Number       Type             X           Y           Z
 ---------------------------------------------------------------------
      1          6           0        0.892629   -0.642344    0.000000
      2          6           0        2.365587   -0.245168    0.000000
      3          6           0        0.000000    0.582921    0.000000
      4          1           0        0.663731   -1.252117    0.879201
      5          1           0        0.663731   -1.252117   -0.879201
      6          1           0        3.005476   -1.130924    0.000000
      7         17           0       -1.732810    0.139743    0.000000
      8          1           0        2.614882    0.347704   -0.884730
      9          1           0        2.614882    0.347704    0.884730
     10          1           0        0.172881    1.195836    0.886460
     11          1           0        0.172881    1.195836   -0.886460
 ---------------------------------------------------------------------

 SCF Done:  E(RHF) =  -577.163805724     A.U. after   12 cycles

 Alpha  occ. eigenvalues -- -104.79876 -11.28825 -11.23588 -11.22593 -10.53834
 Alpha  occ. eigenvalues --   -8.00684  -8.00362  -8.00359  -1.14067  -1.04621
 Alpha  occ. eigenvalues --   -0.91242  -0.81917  -0.66470  -0.60427  -0.58220
 Alpha  occ. eigenvalues --   -0.57533  -0.51268  -0.49770  -0.49521  -0.42830
 Alpha  occ. eigenvalues --   -0.42656
 Alpha virt. eigenvalues --    0.19294   0.24385   0.26984   0.27353   0.29413
 Alpha virt. eigenvalues --    0.32530   0.32667   0.33122   0.38303   0.40527
 Alpha virt. eigenvalues --    0.59682   0.63143   0.65813   0.66125   0.70789

 Mulliken charges:
               1
     1  C   -0.316134
     2  C   -0.502459
     3  C   -0.389506
     4  H    0.185722
     5  H    0.185722
     6  H    0.180867
     7  Cl  -0.104082
     8  H    0.167408
     9  H    0.167408
    10  H    0.212527
    11  H    0.212527
 Sum of Mulliken charges =  -0.00000

 Dipole moment (field-independent basis, Debye):
    X=              2.4199    Y=              0.3105    Z=             -0.0000  Tot=              2.4397
 Quadrupole moment (field-independent basis, Debye-Ang):
   XX=            -36.4871   YY=            -32.8250   ZZ=            -32.9858
   XY=              0.2154   XZ=             -0.0000   YZ=             -0.0000

 Summary of Natural Population Analysis:

                                     Natural Population
             Natural    ---------------------------------------------
  Atom No    Charge        Core      Valence    Rydberg      Total
 --------------------------------------------------------------------
    C  1   -0.45080      1.99999     4.43348    0.01733     6.45080
    C  2   -0.64430      1.99999     4.63028    0.01403     6.64430
    C  3   -0.38900      1.99999     4.36959    0.01942     6.38900
    H  4    0.23041      0.00000     0.76769    0.00190     0.76959
    H  5    0.23041      0.00000     0.76769    0.00190     0.76959
    H  6    0.22889      0.00000     0.77035    0.00076     0.77111
   Cl  7   -0.10826      9.99999     7.08623    0.02204    17.10826
    H  8    0.21560      0.00000     0.78326    0.00113     0.78440
    H  9    0.21560      0.00000     0.78326    0.00113     0.78440
    H 10    0.23572      0.00000     0.76220    0.00208     0.76428
    H 11    0.23572      0.00000     0.76220    0.00208     0.76428
 ====================================================================
 * Total *  0.00000     15.99997    25.91623    0.08380    42.00000

 Normal termination of Gaussian 16 at Mon Nov 18 16:41:12 2024.
