 Gaussian 16, Revision C.01,
 Gaussian 16:  ES64L-G16RevC.01  3-Jul-2019

 -----------------------------------------------------------------
 #RHF/6-31G* int=nobasistransform Symmetry=None 5D 7F Pop=NBO7Read
 -----------------------------------------------------------------

 ---------
 mol09-NBO
 ---------
 Symbolic Z-matrix:
 Charge =  0 Multiplicity = 1

                          Input orientation:
 ---------------------------------------------------------------------
 Center     Atomic      Atomic             Coordinates (Angstroms)
 Number     Number       Type             X           Y           Z
 ---------------------------------------------------------------------
      1          7           0        0.000000    0.000000    0.116489
      2          1           0        0.000000    0.939731   -0.271808
      3          1           0        0.813831   -0.469865   -0.271808
      4          1           0       -0.813831   -0.469865   -0.271808
 ---------------------------------------------------------------------

 SCF Done:  E(RHF) =  -56.1831999551     A.U. after   10 cycles

 Alpha  occ. eigenvalues --  -15.53557  -1.13463  -0.62071  -0.62071  -0.42209
 Alpha virt. eigenvalues --    0.22186   0.32108   0.32108   0.89693   0.89693
 Alpha virt. eigenvalues --    0.97538   1.21414   1.21870   1.21870   1.48349
 Alpha virt. eigenvalues --    1.96581   1.96581   2.26274   2.75032   2.75032

 Mulliken charges:
               1
     1  N   -1.013305
     2  H    0.337768
     3  H    0.337768
     4  H    0.337768
 Sum of Mulliken charges =  -0.00000

 Dipole moment (field-independent basis, Debye):
    X=             -0.0000    Y=              0.0000    Z=             -1.9611  Tot=              1.9611
 Quadrupole moment (field-independent basis, Debye-Ang):
   XX=             -6.1069   YY=             -6.1069   ZZ=             -8.8854
   XY=              0.0000   XZ=              0.0000   YZ=             -0.0000

 Summary of Natural Population Analysis:

                                     Natural Population
             Natural    ---------------------------------------------
  Atom No    Charge        Core      Valence    Rydberg      Total
 --------------------------------------------------------------------
    N  1   -1.11762      1.99999     6.10111    0.01652     8.11762
    H  2    0.37254      0.00000     0.62664    0.00082     0.62746
    H  3    0.37254      0.00000     0.62664    0.00082     0.62746
    H  4    0.37254      0.00000     0.62664    0.00082     0.62746
 ====================================================================
 * Total *  0.00000      1.99999     7.98103    0.01898    10.00000

 Normal termination of Gaussian 16 at Mon Nov 18 16:40:11 2024.
