 Gaussian 16, Revision C.01,
 Gaussian 16:  ES64L-G16RevC.01  3-Jul-2019

 ----------------------------------------------------
 #OPT=VeryTight Int=UltraFine RHF/STO-3G Pop=NBO7Read
 ----------------------------------------------------

 ----------
 NBO-CH3BeH
 ----------
 Symbolic Z-matrix:
 Charge =  0 Multiplicity = 1

 SCF Done:  E(RHF) =  -54.1532077240     A.U. after    9 cycles
 SCF Done:  E(RHF) =  -54.1532086204     A.U. after    7 cycles
 SCF Done:  E(RHF) =  -54.1532086756     A.U. after    6 cycles
 SCF Done:  E(RHF) =  -54.1532086924     A.U. after    6 cycles
 SCF Done:  E(RHF) =  -54.1532086930     A.U. after    5 cycles
 SCF Done:  E(RHF) =  -54.1532086930     A.U. after    5 cycles
 SCF Done:  E(RHF) =  -54.1532086930     A.U. after    4 cycles
 Optimization completed.
    -- Stationary point found.

                         Standard orientation:
 ---------------------------------------------------------------------
 Center     Atomic      Atomic             Coordinates (Angstroms)
 Number     Number       Type             X           Y           Z
 ---------------------------------------------------------------------
      1          6           0       -0.609650    0.000000    0.000000
      2          4           0        1.080912   -0.000000   -0.000000
      3          1           0       -1.012572    0.991820    0.174611
      4          1           0       -1.012571   -0.647128    0.771636
      5          1           0       -1.012572   -0.344692   -0.946247
      6          1           0        2.371966    0.000000    0.000000
 ---------------------------------------------------------------------

 The electronic state is 1-A.
 Alpha  occ. eigenvalues --  -10.98313  -4.49878  -0.87441  -0.50061  -0.50061
 Alpha  occ. eigenvalues --   -0.44437  -0.38790
 Alpha virt. eigenvalues --    0.23751   0.23751   0.45968   0.74375   0.74375
 Alpha virt. eigenvalues --    0.78296   0.97426

 Mulliken charges:
               1
     1  C   -0.313789
     2  Be   0.195281
     3  H    0.056426
     4  H    0.056426
     5  H    0.056426
     6  H   -0.050771
 Sum of Mulliken charges =   0.00000

 Dipole moment (field-independent basis, Debye):
    X=             -0.4519    Y=             -0.0000    Z=             -0.0000  Tot=              0.4519
 Quadrupole moment (field-independent basis, Debye-Ang):
   XX=            -16.4556   YY=            -12.0161   ZZ=            -12.0161
   XY=             -0.0000   XZ=             -0.0000   YZ=              0.0000

 Summary of Natural Population Analysis:

                                     Natural Population
             Natural    ---------------------------------------------
  Atom No    Charge        Core      Valence    Rydberg      Total
 --------------------------------------------------------------------
    C  1   -0.62531      1.99999     4.62532    0.00000     6.62531
   Be  2    0.90766      2.00000     0.88648    0.20587     3.09234
    H  3    0.05050      0.00000     0.94950    0.00000     0.94950
    H  4    0.05050      0.00000     0.94950    0.00000     0.94950
    H  5    0.05050      0.00000     0.94950    0.00000     0.94950
    H  6   -0.43384      0.00000     1.43384    0.00000     1.43384
 ====================================================================
 * Total *  0.00000      3.99999     9.79414    0.20587    14.00000

 Normal termination of Gaussian 16 at Wed Jul 24 11:04:38 2024.
