 Gaussian 16, Revision C.01,
 Gaussian 16:  ES64L-G16RevC.01  3-Jul-2019

 -----------------------------------------------------------------
 #RHF/STO-3G int=nobasistransform Symmetry=None 5D 7F Pop=NBO7Read
 -----------------------------------------------------------------

 ---------
 mol23-NBO
 ---------
 Symbolic Z-matrix:
 Charge =  0 Multiplicity = 1

                          Input orientation:
 ---------------------------------------------------------------------
 Center     Atomic      Atomic             Coordinates (Angstroms)
 Number     Number       Type             X           Y           Z
 ---------------------------------------------------------------------
      1          6           0        0.000000    0.000000    0.608080
      2          6           0        0.000000    0.000000   -0.608080
      3          1           0        0.000000    0.000000   -1.673990
      4          1           0        0.000000    0.000000    1.673990
 ---------------------------------------------------------------------

 SCF Done:  E(RHF) =  -75.8500580980     A.U. after    7 cycles

 Alpha  occ. eigenvalues --  -10.99859 -10.99595  -0.94733  -0.70583  -0.60485
 Alpha  occ. eigenvalues --   -0.34299  -0.34299
 Alpha virt. eigenvalues --    0.39054   0.39054   0.54633   0.72744   1.44686

 Mulliken charges:
               1
     1  C   -0.108530
     2  C   -0.108530
     3  H    0.108530
     4  H    0.108530
 Sum of Mulliken charges =  -0.00000

 Dipole moment (field-independent basis, Debye):
    X=             -0.0000    Y=             -0.0000    Z=             -0.0000  Tot=              0.0000
 Quadrupole moment (field-independent basis, Debye-Ang):
   XX=            -11.7607   YY=            -11.7607   ZZ=             -7.5311
   XY=             -0.0000   XZ=              0.0000   YZ=             -0.0000

 Summary of Natural Population Analysis:

                                     Natural Population
             Natural    ---------------------------------------------
  Atom No    Charge        Core      Valence    Rydberg      Total
 --------------------------------------------------------------------
    C  1   -0.07570      2.00000     4.07570    0.00000     6.07570
    C  2   -0.07570      2.00000     4.07570    0.00000     6.07570
    H  3    0.07570      0.00000     0.92430    0.00000     0.92430
    H  4    0.07570      0.00000     0.92430    0.00000     0.92430
 ====================================================================
 * Total *  0.00000      3.99999    10.00001    0.00000    14.00000

 Normal termination of Gaussian 16 at Mon Nov 18 15:41:20 2024.
