 Gaussian 16, Revision C.01,
 Gaussian 16:  ES64L-G16RevC.01  3-Jul-2019

 -----------------------------------------------------------------
 #RHF/6-31G* int=nobasistransform Symmetry=None 5D 7F Pop=NBO7Read
 -----------------------------------------------------------------

 ---------
 mol72-NBO
 ---------
 Symbolic Z-matrix:
 Charge =  0 Multiplicity = 1

                          Input orientation:
 ---------------------------------------------------------------------
 Center     Atomic      Atomic             Coordinates (Angstroms)
 Number     Number       Type             X           Y           Z
 ---------------------------------------------------------------------
      1         17           0        0.000000    0.000000    0.376796
      2          9           0        0.000000    0.000000   -1.258346
      3          9           0        0.000000    1.714544    0.273310
      4          9           0        0.000000   -1.714544    0.273310
 ---------------------------------------------------------------------

 SCF Done:  E(RHF) =  -757.474624857     A.U. after   13 cycles

 Alpha  occ. eigenvalues -- -105.13249 -26.41798 -26.29610 -26.29609 -10.83660
 Alpha  occ. eigenvalues --   -8.30434  -8.30242  -8.29828  -1.70911  -1.57824
 Alpha  occ. eigenvalues --   -1.57450  -1.18173  -0.81349  -0.79560  -0.79454
 Alpha  occ. eigenvalues --   -0.72745  -0.68492  -0.65280  -0.62738  -0.62495
 Alpha  occ. eigenvalues --   -0.53607  -0.53434
 Alpha virt. eigenvalues --    0.02419   0.13405   0.45167   0.52855   0.54100
 Alpha virt. eigenvalues --    0.56635   0.85181   0.88607   0.90209   1.08920
 Alpha virt. eigenvalues --    1.10737   1.42253   1.49010   1.50297   1.55500

 Mulliken charges:
               1
     1  Cl   1.392255
     2  F   -0.323217
     3  F   -0.534519
     4  F   -0.534519
 Sum of Mulliken charges =  -0.00000

 Dipole moment (field-independent basis, Debye):
    X=              0.0000    Y=              0.0000    Z=              0.9306  Tot=              0.9306
 Quadrupole moment (field-independent basis, Debye-Ang):
   XX=            -25.4405   YY=            -34.1333   ZZ=            -24.7098
   XY=              0.0000   XZ=              0.0000   YZ=             -0.0000

 Summary of Natural Population Analysis:

                                     Natural Population
             Natural    ---------------------------------------------
  Atom No    Charge        Core      Valence    Rydberg      Total
 --------------------------------------------------------------------
   Cl  1    1.43655      9.99998     5.47714    0.08633    15.56345
    F  2   -0.33072      2.00000     7.31909    0.01164     9.33072
    F  3   -0.55292      2.00000     7.54323    0.00969     9.55292
    F  4   -0.55292      2.00000     7.54323    0.00969     9.55292
 ====================================================================
 * Total *  0.00000     15.99997    27.88268    0.11736    44.00000

 Normal termination of Gaussian 16 at Mon Nov 18 16:40:43 2024.
