 Gaussian 16, Revision C.01,
 Gaussian 16:  ES64L-G16RevC.01  3-Jul-2019

 -----------------------
 #RHF/4-31G Pop=NBO7Read
 -----------------------

 -----
 NBO-a
 -----
 Symbolic Z-matrix:
 Charge =  0 Multiplicity = 1

                         Standard orientation:
 ---------------------------------------------------------------------
 Center     Atomic      Atomic             Coordinates (Angstroms)
 Number     Number       Type             X           Y           Z
 ---------------------------------------------------------------------
      1          7           0        0.000000    0.000000    0.301445
      2          3           0        0.000000    0.000000   -1.333312
      3          1           0       -0.000000    0.799559    0.944908
      4          1           0       -0.000000   -0.799559    0.944908
 ---------------------------------------------------------------------

 SCF Done:  E(RHF) =  -62.9662806302     A.U. after   11 cycles

 The electronic state is 1-A1.
 Alpha  occ. eigenvalues --  -15.40236  -2.39136  -0.99179  -0.51456  -0.41101
 Alpha  occ. eigenvalues --   -0.28732
 Alpha virt. eigenvalues --    0.02636   0.08389   0.10274   0.12965   0.26210
 Alpha virt. eigenvalues --    0.26992   0.29255   0.37236   0.41586   0.54585
 Alpha virt. eigenvalues --    1.13147   1.19257   1.33601   1.38877   1.41697

 Mulliken charges:
               1
     1  N   -1.104166
     2  Li   0.580154
     3  H    0.262006
     4  H    0.262006
 Sum of Mulliken charges =  -0.00000

 Dipole moment (field-independent basis, Debye):
    X=             -0.0000    Y=              0.0000    Z=             -4.0017  Tot=              4.0017
 Quadrupole moment (field-independent basis, Debye-Ang):
   XX=            -12.4097   YY=             -8.4337   ZZ=             -0.5626
   XY=              0.0000   XZ=             -0.0000   YZ=             -0.0000

 Summary of Natural Population Analysis:

                                     Natural Population
             Natural    ---------------------------------------------
  Atom No    Charge        Core      Valence    Rydberg      Total
 --------------------------------------------------------------------
    N  1   -1.61687      1.99994     6.60777    0.00915     8.61687
   Li  2    0.90009      1.99984     0.03022    0.06985     2.09991
    H  3    0.35839      0.00000     0.64091    0.00070     0.64161
    H  4    0.35839      0.00000     0.64091    0.00070     0.64161
 ====================================================================
 * Total *  0.00000      3.99979     7.91981    0.08041    12.00000

 Normal termination of Gaussian 16 at Wed Jul 24 13:57:01 2024.
