 Gaussian 16, Revision C.01,
 Gaussian 16:  ES64L-G16RevC.01  3-Jul-2019

 -----------------------------------------------------------------
 #RHF/STO-3G int=nobasistransform Symmetry=None 5D 7F Pop=NBO7Read
 -----------------------------------------------------------------

 ---------
 mol95-NBO
 ---------
 Symbolic Z-matrix:
 Charge =  0 Multiplicity = 1

                          Input orientation:
 ---------------------------------------------------------------------
 Center     Atomic      Atomic             Coordinates (Angstroms)
 Number     Number       Type             X           Y           Z
 ---------------------------------------------------------------------
      1          6           0        0.000000    0.000000    0.759945
      2         17           0        0.000000    1.474200   -0.215115
      3         17           0        0.000000   -1.474200   -0.215115
      4          1           0       -0.894585    0.000000    1.377127
      5          1           0        0.894585    0.000000    1.377127
 ---------------------------------------------------------------------

 SCF Done:  E(RHF) =  -947.711505561     A.U. after    9 cycles

 Alpha  occ. eigenvalues -- -103.73028-103.73028 -11.20297 -10.41146 -10.41128
 Alpha  occ. eigenvalues --   -7.85574  -7.85566  -7.84993  -7.84966  -7.84966
 Alpha  occ. eigenvalues --   -7.84962  -1.14497  -1.02578  -0.85158  -0.65884
 Alpha  occ. eigenvalues --   -0.57359  -0.53275  -0.42673  -0.41820  -0.40135
 Alpha  occ. eigenvalues --   -0.39965
 Alpha virt. eigenvalues --    0.31203   0.36578   0.62073   0.63293

 Mulliken charges:
               1
     1  C   -0.046186
     2  Cl  -0.109463
     3  Cl  -0.109463
     4  H    0.132556
     5  H    0.132556
 Sum of Mulliken charges =   0.00000

 Dipole moment (field-independent basis, Debye):
    X=              0.0000    Y=              0.0000    Z=              2.1835  Tot=              2.1835
 Quadrupole moment (field-independent basis, Debye-Ang):
   XX=            -28.9863   YY=            -33.9397   ZZ=            -27.9363
   XY=              0.0000   XZ=              0.0000   YZ=             -0.0000

 Summary of Natural Population Analysis:

                                     Natural Population
             Natural    ---------------------------------------------
  Atom No    Charge        Core      Valence    Rydberg      Total
 --------------------------------------------------------------------
    C  1    0.11061      1.99999     3.88940    0.00000     5.88939
   Cl  2   -0.14085     10.00000     7.14085    0.00000    17.14085
   Cl  3   -0.14085     10.00000     7.14085    0.00000    17.14085
    H  4    0.08555      0.00000     0.91445    0.00000     0.91445
    H  5    0.08555      0.00000     0.91445    0.00000     0.91445
 ====================================================================
 * Total *  0.00000     21.99999    20.00001    0.00000    42.00000

 Normal termination of Gaussian 16 at Mon Nov 18 15:41:27 2024.
