 Gaussian 16, Revision C.01,
 Gaussian 16:  ES64L-G16RevC.01  3-Jul-2019

 -----------------------------------------------------------------
 #RHF/6-31G* int=nobasistransform Symmetry=None 5D 7F Pop=NBO7Read
 -----------------------------------------------------------------

 ---------
 mol23-NBO
 ---------
 Symbolic Z-matrix:
 Charge =  0 Multiplicity = 1

                          Input orientation:
 ---------------------------------------------------------------------
 Center     Atomic      Atomic             Coordinates (Angstroms)
 Number     Number       Type             X           Y           Z
 ---------------------------------------------------------------------
      1          6           0        0.000000    0.000000    0.608080
      2          6           0        0.000000    0.000000   -0.608080
      3          1           0        0.000000    0.000000   -1.673990
      4          1           0        0.000000    0.000000    1.673990
 ---------------------------------------------------------------------

 SCF Done:  E(RHF) =  -76.8151348775     A.U. after    9 cycles

 Alpha  occ. eigenvalues --  -11.24157 -11.23819  -1.01551  -0.76122  -0.66967
 Alpha  occ. eigenvalues --   -0.39725  -0.39725
 Alpha virt. eigenvalues --    0.21272   0.21272   0.24656   0.29484   0.61106
 Alpha virt. eigenvalues --    0.65576   0.74951   0.74951   0.90377   0.90377
 Alpha virt. eigenvalues --    0.95304   1.05152   1.28630   1.53261   1.74323

 Mulliken charges:
               1
     1  C   -0.283650
     2  C   -0.283650
     3  H    0.283650
     4  H    0.283650
 Sum of Mulliken charges =   0.00000

 Dipole moment (field-independent basis, Debye):
    X=              0.0000    Y=              0.0000    Z=              0.0000  Tot=              0.0000
 Quadrupole moment (field-independent basis, Debye-Ang):
   XX=            -13.4856   YY=            -13.4856   ZZ=             -6.4374
   XY=              0.0000   XZ=              0.0000   YZ=              0.0000

 Summary of Natural Population Analysis:

                                     Natural Population
             Natural    ---------------------------------------------
  Atom No    Charge        Core      Valence    Rydberg      Total
 --------------------------------------------------------------------
    C  1   -0.24677      1.99999     4.23614    0.01063     6.24677
    C  2   -0.24677      1.99999     4.23614    0.01063     6.24677
    H  3    0.24677      0.00000     0.75267    0.00056     0.75323
    H  4    0.24677      0.00000     0.75267    0.00056     0.75323
 ====================================================================
 * Total *  0.00000      3.99999     9.97763    0.02238    14.00000

 Normal termination of Gaussian 16 at Mon Nov 18 16:40:09 2024.
