 Gaussian 16, Revision C.01,
 Gaussian 16:  ES64L-G16RevC.01  3-Jul-2019

 -----------------------------------------------------------------
 #RHF/STO-3G int=nobasistransform Symmetry=None 5D 7F Pop=NBO7Read
 -----------------------------------------------------------------

 ---------
 mol25-NBO
 ---------
 Symbolic Z-matrix:
 Charge =  0 Multiplicity = 1

                          Input orientation:
 ---------------------------------------------------------------------
 Center     Atomic      Atomic             Coordinates (Angstroms)
 Number     Number       Type             X           Y           Z
 ---------------------------------------------------------------------
      1          6           0        0.000000    0.000000    0.762209
      2          6           0        0.000000    0.000000   -0.762209
      3          1           0        0.000000    1.018957    1.157229
      4          1           0       -0.882443   -0.509479    1.157229
      5          1           0        0.882443   -0.509479    1.157229
      6          1           0        0.000000   -1.018957   -1.157229
      7          1           0       -0.882443    0.509479   -1.157229
      8          1           0        0.882443    0.509479   -1.157229
 ---------------------------------------------------------------------

 SCF Done:  E(RHF) =  -78.3057905928     A.U. after    7 cycles

 Alpha  occ. eigenvalues --  -11.03621 -11.03592  -0.98151  -0.80886  -0.57006
 Alpha  occ. eigenvalues --   -0.57006  -0.47634  -0.45601  -0.45601
 Alpha virt. eigenvalues --    0.64485   0.64485   0.70160   0.73271   0.77367
 Alpha virt. eigenvalues --    0.78450   0.78450

 Mulliken charges:
               1
     1  C   -0.170562
     2  C   -0.170562
     3  H    0.056854
     4  H    0.056854
     5  H    0.056854
     6  H    0.056854
     7  H    0.056854
     8  H    0.056854
 Sum of Mulliken charges =   0.00000

 Dipole moment (field-independent basis, Debye):
    X=             -0.0000    Y=              0.0000    Z=              0.0000  Tot=              0.0000
 Quadrupole moment (field-independent basis, Debye-Ang):
   XX=            -14.0427   YY=            -14.0427   ZZ=            -14.4166
   XY=              0.0000   XZ=             -0.0000   YZ=             -0.0000

 Summary of Natural Population Analysis:

                                     Natural Population
             Natural    ---------------------------------------------
  Atom No    Charge        Core      Valence    Rydberg      Total
 --------------------------------------------------------------------
    C  1   -0.12330      2.00000     4.12330    0.00000     6.12330
    C  2   -0.12330      2.00000     4.12330    0.00000     6.12330
    H  3    0.04110      0.00000     0.95890    0.00000     0.95890
    H  4    0.04110      0.00000     0.95890    0.00000     0.95890
    H  5    0.04110      0.00000     0.95890    0.00000     0.95890
    H  6    0.04110      0.00000     0.95890    0.00000     0.95890
    H  7    0.04110      0.00000     0.95890    0.00000     0.95890
    H  8    0.04110      0.00000     0.95890    0.00000     0.95890
 ====================================================================
 * Total *  0.00000      4.00000    14.00000    0.00000    18.00000

 Normal termination of Gaussian 16 at Mon Nov 18 15:41:19 2024.
