 Gaussian 16, Revision C.01,
 Gaussian 16:  ES64L-G16RevC.01  3-Jul-2019

 ------------------------
 #RHF/6-31G* Pop=NBO7Read
 ------------------------

 -----
 NBO-a
 -----
 Symbolic Z-matrix:
 Charge =  0 Multiplicity = 1

                         Standard orientation:
 ---------------------------------------------------------------------
 Center     Atomic      Atomic             Coordinates (Angstroms)
 Number     Number       Type             X           Y           Z
 ---------------------------------------------------------------------
      1          6           0       -0.058292    0.712886   -0.000000
      2          1           0       -0.587597    1.069752    0.881977
      3          1           0        0.942410    1.152799    0.000000
      4          1           0       -0.587597    1.069752   -0.881977
      5          7           0       -0.058292   -0.772674   -0.000000
      6          1           0        0.495291   -1.080450   -0.816502
      7          1           0        0.495291   -1.080450    0.816502
 ---------------------------------------------------------------------

 SCF Done:  E(RHF) =  -95.2072347966     A.U. after   11 cycles

 The electronic state is 1-A'.
 Alpha  occ. eigenvalues --  -15.54701 -11.24232  -1.15926  -0.89296  -0.65053
 Alpha  occ. eigenvalues --   -0.59863  -0.54627  -0.51605  -0.39336
 Alpha virt. eigenvalues --    0.22177   0.28508   0.30499   0.32802   0.33159
 Alpha virt. eigenvalues --    0.40736   0.76649   0.77175   0.78722   0.96598
 Alpha virt. eigenvalues --    0.99257   1.05193   1.13871   1.18653   1.19859

 Mulliken charges:
               1
     1  C   -0.303139
     2  H    0.168219
     3  H    0.136909
     4  H    0.168219
     5  N   -0.818000
     6  H    0.323896
     7  H    0.323896
 Sum of Mulliken charges =  -0.00000

 Dipole moment (field-independent basis, Debye):
    X=              1.6209    Y=              0.6367    Z=              0.0000  Tot=              1.7415
 Quadrupole moment (field-independent basis, Debye-Ang):
   XX=            -14.7119   YY=            -14.5851   ZZ=            -12.6060
   XY=             -2.3977   XZ=              0.0000   YZ=             -0.0000

 Summary of Natural Population Analysis:

                                     Natural Population
             Natural    ---------------------------------------------
  Atom No    Charge        Core      Valence    Rydberg      Total
 --------------------------------------------------------------------
    C  1   -0.41868      2.00000     4.40383    0.01485     6.41868
    H  2    0.20726      0.00000     0.79189    0.00084     0.79274
    H  3    0.17998      0.00000     0.81875    0.00128     0.82002
    H  4    0.20726      0.00000     0.79189    0.00084     0.79274
    N  5   -0.91798      2.00000     5.89966    0.01833     7.91798
    H  6    0.37108      0.00000     0.62760    0.00132     0.62892
    H  7    0.37108      0.00000     0.62760    0.00132     0.62892
 ====================================================================
 * Total *  0.00000      3.99999    13.96123    0.03877    18.00000

 Normal termination of Gaussian 16 at Wed Jul 24 12:08:03 2024.
