 Gaussian 16, Revision C.01,
 Gaussian 16:  ES64L-G16RevC.01  3-Jul-2019

 -----------------------------------------------------------------
 #RHF/STO-3G int=nobasistransform Symmetry=None 5D 7F Pop=NBO7Read
 -----------------------------------------------------------------

 ----------
 mol133-NBO
 ----------
 Symbolic Z-matrix:
 Charge =  0 Multiplicity = 1

                          Input orientation:
 ---------------------------------------------------------------------
 Center     Atomic      Atomic             Coordinates (Angstroms)
 Number     Number       Type             X           Y           Z
 ---------------------------------------------------------------------
      1          1           0        0.000000    0.000000    2.129296
      2          7           0        0.000000    0.000000    1.118684
      3          6           0        0.000000    1.124516    0.333565
      4          6           0        0.000000   -1.124516    0.333565
      5          6           0        0.000000    0.708407   -0.983807
      6          6           0        0.000000   -0.708407   -0.983807
      7          1           0        0.000000    2.112872    0.770496
      8          1           0        0.000000   -2.112872    0.770496
      9          1           0        0.000000    1.357252   -1.849085
     10          1           0        0.000000   -1.357252   -1.849085
 ---------------------------------------------------------------------

 SCF Done:  E(RHF) =  -206.224564954     A.U. after   11 cycles

 Alpha  occ. eigenvalues --  -15.40950 -11.03767 -11.03746 -10.98669 -10.98653
 Alpha  occ. eigenvalues --   -1.22506  -0.97572  -0.91201  -0.73316  -0.70466
 Alpha  occ. eigenvalues --   -0.68161  -0.52782  -0.52168  -0.51724  -0.48157
 Alpha  occ. eigenvalues --   -0.46183  -0.28070  -0.23279
 Alpha virt. eigenvalues --    0.32243   0.40859   0.56407   0.64327   0.68253
 Alpha virt. eigenvalues --    0.69299   0.71655   0.77896   0.79479   0.97078
 Alpha virt. eigenvalues --    1.04762   1.14260

 Mulliken charges:
               1
     1  H    0.219880
     2  N   -0.303640
     3  C    0.018985
     4  C    0.018985
     5  C   -0.100153
     6  C   -0.100153
     7  H    0.067284
     8  H    0.067284
     9  H    0.055764
    10  H    0.055764
 Sum of Mulliken charges =  -0.00000

 Dipole moment (field-independent basis, Debye):
    X=             -0.0000    Y=              0.0000    Z=              1.9116  Tot=              1.9116
 Quadrupole moment (field-independent basis, Debye-Ang):
   XX=            -29.6907   YY=            -25.9145   ZZ=            -23.2951
   XY=             -0.0000   XZ=              0.0000   YZ=              0.0000

 Summary of Natural Population Analysis:

                                     Natural Population
             Natural    ---------------------------------------------
  Atom No    Charge        Core      Valence    Rydberg      Total
 --------------------------------------------------------------------
    H  1    0.21428      0.00000     0.78572    0.00000     0.78572
    N  2   -0.26178      2.00000     5.26178    0.00000     7.26178
    C  3    0.05003      2.00000     3.94997    0.00000     5.94997
    C  4    0.05003      2.00000     3.94997    0.00000     5.94997
    C  5   -0.09972      2.00000     4.09972    0.00000     6.09972
    C  6   -0.09972      2.00000     4.09972    0.00000     6.09972
    H  7    0.03774      0.00000     0.96226    0.00000     0.96226
    H  8    0.03774      0.00000     0.96226    0.00000     0.96226
    H  9    0.03570      0.00000     0.96430    0.00000     0.96430
    H 10    0.03570      0.00000     0.96430    0.00000     0.96430
 ====================================================================
 * Total *  0.00000      9.99999    26.00001    0.00000    36.00000

 Normal termination of Gaussian 16 at Mon Nov 18 15:41:50 2024.
