 Gaussian 16, Revision C.01,
 Gaussian 16:  ES64L-G16RevC.01  3-Jul-2019

 -----------------------------------------------------------------
 #RHF/STO-3G int=nobasistransform Symmetry=None 5D 7F Pop=NBO7Read
 -----------------------------------------------------------------

 ---------
 mol18-NBO
 ---------
 Symbolic Z-matrix:
 Charge =  0 Multiplicity = 1

                          Input orientation:
 ---------------------------------------------------------------------
 Center     Atomic      Atomic             Coordinates (Angstroms)
 Number     Number       Type             X           Y           Z
 ---------------------------------------------------------------------
      1         15           0        0.000000    0.000000    0.124619
      2          1           0        0.000000    1.200647   -0.623095
      3          1           0        1.039791   -0.600323   -0.623095
      4          1           0       -1.039791   -0.600323   -0.623095
 ---------------------------------------------------------------------

 SCF Done:  E(RHF) =  -338.634137834     A.U. after    7 cycles

 Alpha  occ. eigenvalues --  -78.93474  -7.24762  -5.07123  -5.07123  -5.06877
 Alpha  occ. eigenvalues --   -0.80027  -0.45302  -0.45302  -0.29472
 Alpha virt. eigenvalues --    0.47899   0.47899   0.60617

 Mulliken charges:
               1
     1  P    0.348046
     2  H   -0.116015
     3  H   -0.116015
     4  H   -0.116015
 Sum of Mulliken charges =  -0.00000

 Dipole moment (field-independent basis, Debye):
    X=              0.0000    Y=             -0.0000    Z=             -0.5997  Tot=              0.5997
 Quadrupole moment (field-independent basis, Debye-Ang):
   XX=            -13.3477   YY=            -13.3477   ZZ=            -14.3483
   XY=             -0.0000   XZ=             -0.0000   YZ=              0.0000

 Summary of Natural Population Analysis:

                                     Natural Population
             Natural    ---------------------------------------------
  Atom No    Charge        Core      Valence    Rydberg      Total
 --------------------------------------------------------------------
    P  1    0.37908      9.99996     4.62096    0.00000    14.62092
    H  2   -0.12636      0.00000     1.12636    0.00000     1.12636
    H  3   -0.12636      0.00000     1.12636    0.00000     1.12636
    H  4   -0.12636      0.00000     1.12636    0.00000     1.12636
 ====================================================================
 * Total *  0.00000      9.99996     8.00004    0.00000    18.00000

 Normal termination of Gaussian 16 at Mon Nov 18 15:41:33 2024.
