 Gaussian 16, Revision C.01,
 Gaussian 16:  ES64L-G16RevC.01  3-Jul-2019

 -----------------------------------------------------------------
 #RHF/6-31G* int=nobasistransform Symmetry=None 5D 7F Pop=NBO7Read
 -----------------------------------------------------------------

 ----------
 mol101-NBO
 ----------
 Symbolic Z-matrix:
 Charge =  0 Multiplicity = 1

                          Input orientation:
 ---------------------------------------------------------------------
 Center     Atomic      Atomic             Coordinates (Angstroms)
 Number     Number       Type             X           Y           Z
 ---------------------------------------------------------------------
      1          6           0        0.000000    0.000000   -1.244466
      2         14           0        0.000000    0.000000    0.635703
      3          1           0        0.000000   -1.019762   -1.636363
      4          1           0       -0.883140    0.509881   -1.636363
      5          1           0        0.883140    0.509881   -1.636363
      6          1           0        0.000000    1.391234    1.158682
      7          1           0       -1.204844   -0.695617    1.158682
      8          1           0        1.204844   -0.695617    1.158682
 ---------------------------------------------------------------------

 SCF Done:  E(RHF) =  -330.270867147     A.U. after   10 cycles

 Alpha  occ. eigenvalues --  -68.75119 -11.20732  -6.11488  -4.22037  -4.22037
 Alpha  occ. eigenvalues --   -4.21974  -0.94768  -0.69824  -0.56338  -0.56338
 Alpha  occ. eigenvalues --   -0.46705  -0.46705  -0.45453
 Alpha virt. eigenvalues --    0.15814   0.19737   0.19737   0.26516   0.29137
 Alpha virt. eigenvalues --    0.29137   0.31012   0.41535   0.41808   0.41808
 Alpha virt. eigenvalues --    0.50740   0.71810   0.71810   0.77973   0.88198

 Mulliken charges:
               1
     1  C   -0.797931
     2  Si   0.692307
     3  H    0.186775
     4  H    0.186775
     5  H    0.186775
     6  H   -0.151567
     7  H   -0.151567
     8  H   -0.151567
 Sum of Mulliken charges =  -0.00000

 Dipole moment (field-independent basis, Debye):
    X=              0.0000    Y=             -0.0000    Z=             -0.7057  Tot=              0.7057
 Quadrupole moment (field-independent basis, Debye-Ang):
   XX=            -23.2629   YY=            -23.2629   ZZ=            -23.5921
   XY=              0.0000   XZ=             -0.0000   YZ=              0.0000

 Summary of Natural Population Analysis:

                                     Natural Population
             Natural    ---------------------------------------------
  Atom No    Charge        Core      Valence    Rydberg      Total
 --------------------------------------------------------------------
    C  1   -1.16229      1.99999     5.15011    0.01219     7.16229
   Si  2    1.11500      9.99999     2.83759    0.04742    12.88500
    H  3    0.24409      0.00000     0.75533    0.00058     0.75591
    H  4    0.24409      0.00000     0.75533    0.00058     0.75591
    H  5    0.24409      0.00000     0.75533    0.00058     0.75591
    H  6   -0.22833      0.00000     1.22804    0.00028     1.22833
    H  7   -0.22833      0.00000     1.22804    0.00028     1.22833
    H  8   -0.22833      0.00000     1.22804    0.00028     1.22833
 ====================================================================
 * Total *  0.00000     11.99998    13.93782    0.06220    26.00000

 Normal termination of Gaussian 16 at Mon Nov 18 16:40:49 2024.
