 Gaussian 16, Revision C.01,
 Gaussian 16:  ES64L-G16RevC.01  3-Jul-2019

 -----------------------------------------------------------------
 #RHF/6-31G* int=nobasistransform Symmetry=None 5D 7F Pop=NBO7Read
 -----------------------------------------------------------------

 ---------
 mol70-NBO
 ---------
 Symbolic Z-matrix:
 Charge =  0 Multiplicity = 1

                          Input orientation:
 ---------------------------------------------------------------------
 Center     Atomic      Atomic             Coordinates (Angstroms)
 Number     Number       Type             X           Y           Z
 ---------------------------------------------------------------------
      1          8           0        0.000000    1.103810   -0.228542
      2          8           0        0.000000    0.000000    0.457084
      3          8           0        0.000000   -1.103810   -0.228542
 ---------------------------------------------------------------------

 SCF Done:  E(RHF) =  -224.234280069     A.U. after   13 cycles

 Alpha  occ. eigenvalues --  -20.91932 -20.71976 -20.71967  -1.72519  -1.41553
 Alpha  occ. eigenvalues --   -1.09845  -0.81793  -0.78779  -0.76426  -0.56097
 Alpha  occ. eigenvalues --   -0.55232  -0.48268
 Alpha virt. eigenvalues --   -0.05179   0.27863   0.36809   0.94380   1.01656
 Alpha virt. eigenvalues --    1.03655   1.03718   1.11236   1.11639   1.17228
 Alpha virt. eigenvalues --    1.20433   1.21055   1.25761   1.60366   1.62101

 Mulliken charges:
               1
     1  O   -0.124805
     2  O    0.249609
     3  O   -0.124805
 Sum of Mulliken charges =  -0.00000

 Dipole moment (field-independent basis, Debye):
    X=              0.0000    Y=              0.0000    Z=              0.7566  Tot=              0.7566
 Quadrupole moment (field-independent basis, Debye-Ang):
   XX=            -14.7667   YY=            -17.0437   ZZ=            -15.6695
   XY=              0.0000   XZ=              0.0000   YZ=             -0.0000

 Summary of Natural Population Analysis:

                                     Natural Population
             Natural    ---------------------------------------------
  Atom No    Charge        Core      Valence    Rydberg      Total
 --------------------------------------------------------------------
    O  1   -0.16358      2.00000     6.13989    0.02369     8.16358
    O  2    0.32715      1.99999     5.63980    0.03305     7.67285
    O  3   -0.16358      2.00000     6.13989    0.02369     8.16358
 ====================================================================
 * Total *  0.00000      5.99999    17.91959    0.08043    24.00000

 Normal termination of Gaussian 16 at Mon Nov 18 16:40:41 2024.
