 Gaussian 16, Revision C.01,
 Gaussian 16:  ES64L-G16RevC.01  3-Jul-2019

 -----------------------------------------------------------------
 #RHF/STO-3G int=nobasistransform Symmetry=None 5D 7F Pop=NBO7Read
 -----------------------------------------------------------------

 ---------
 mol58-NBO
 ---------
 Symbolic Z-matrix:
 Charge =  0 Multiplicity = 1

                          Input orientation:
 ---------------------------------------------------------------------
 Center     Atomic      Atomic             Coordinates (Angstroms)
 Number     Number       Type             X           Y           Z
 ---------------------------------------------------------------------
      1         13           0        0.000000    0.000000    0.000000
      2         17           0        0.000000    2.069041    0.000000
      3         17           0        1.791842   -1.034520    0.000000
      4         17           0       -1.791842   -1.034520    0.000000
 ---------------------------------------------------------------------

 SCF Done:  E(RHF) =  -1603.02657405     A.U. after    8 cycles

 Alpha  occ. eigenvalues -- -103.66326-103.66326-103.66326 -58.02784 -10.35646
 Alpha  occ. eigenvalues --  -10.35637 -10.35637  -7.79974  -7.79966  -7.79966
 Alpha  occ. eigenvalues --   -7.79528  -7.79511  -7.79511  -7.79485  -7.79485
 Alpha  occ. eigenvalues --   -7.79484  -4.93644  -3.16599  -3.16599  -3.16473
 Alpha  occ. eigenvalues --   -1.04365  -1.01458  -1.01458  -0.55681  -0.47300
 Alpha  occ. eigenvalues --   -0.47300  -0.44707  -0.41616  -0.41616  -0.41272
 Alpha  occ. eigenvalues --   -0.41272  -0.40951
 Alpha virt. eigenvalues --    0.21059   0.22527   0.48947   0.48947

 Mulliken charges:
               1
     1  Al   1.265056
     2  Cl  -0.421685
     3  Cl  -0.421685
     4  Cl  -0.421685
 Sum of Mulliken charges =  -0.00000

 Dipole moment (field-independent basis, Debye):
    X=             -0.0000    Y=             -0.0000    Z=              0.0000  Tot=              0.0000
 Quadrupole moment (field-independent basis, Debye-Ang):
   XX=            -55.7894   YY=            -55.7894   ZZ=            -41.1868
   XY=              0.0000   XZ=             -0.0000   YZ=             -0.0000

 Summary of Natural Population Analysis:

                                     Natural Population
             Natural    ---------------------------------------------
  Atom No    Charge        Core      Valence    Rydberg      Total
 --------------------------------------------------------------------
   Al  1    1.50778      9.99972     1.49250    0.00000    11.49222
   Cl  2   -0.50259      9.99998     7.50262    0.00000    17.50259
   Cl  3   -0.50259      9.99998     7.50262    0.00000    17.50259
   Cl  4   -0.50259      9.99998     7.50262    0.00000    17.50259
 ====================================================================
 * Total *  0.00000     39.99965    24.00035    0.00000    64.00000

 Normal termination of Gaussian 16 at Mon Nov 18 15:41:22 2024.
