 Gaussian 16, Revision C.01,
 Gaussian 16:  ES64L-G16RevC.01  3-Jul-2019

 -----------------------------------------------------------------
 #RHF/6-31G* int=nobasistransform Symmetry=None 5D 7F Pop=NBO7Read
 -----------------------------------------------------------------

 ---------
 mol39-NBO
 ---------
 Symbolic Z-matrix:
 Charge =  0 Multiplicity = 1

                          Input orientation:
 ---------------------------------------------------------------------
 Center     Atomic      Atomic             Coordinates (Angstroms)
 Number     Number       Type             X           Y           Z
 ---------------------------------------------------------------------
      1         11           0        0.000000    0.000000    1.576262
      2         11           0        0.000000    0.000000   -1.576262
 ---------------------------------------------------------------------

 SCF Done:  E(RHF) =  -323.681654569     A.U. after    9 cycles

 Alpha  occ. eigenvalues --  -40.47529 -40.47529  -2.78957  -2.78950  -1.51048
 Alpha  occ. eigenvalues --   -1.50959  -1.50959  -1.50936  -1.50936  -1.50901
 Alpha  occ. eigenvalues --   -0.16416
 Alpha virt. eigenvalues --    0.00621   0.03450   0.03450   0.04875   0.06720
 Alpha virt. eigenvalues --    0.06720   0.09456   0.14806   0.20053   0.20083
 Alpha virt. eigenvalues --    0.20083   0.20574   0.24515   0.24515   0.34390

 Mulliken charges:
               1
     1  Na  -0.000000
     2  Na   0.000000
 Sum of Mulliken charges =   0.00000

 Dipole moment (field-independent basis, Debye):
    X=              0.0000    Y=              0.0000    Z=              0.0000  Tot=              0.0000
 Quadrupole moment (field-independent basis, Debye-Ang):
   XX=            -24.5401   YY=            -24.5401   ZZ=             -9.1226
   XY=              0.0000   XZ=             -0.0000   YZ=              0.0000

 Summary of Natural Population Analysis:

                                     Natural Population
             Natural    ---------------------------------------------
  Atom No    Charge        Core      Valence    Rydberg      Total
 --------------------------------------------------------------------
   Na  1    0.00000      9.99996     0.98608    0.01396    11.00000
   Na  2    0.00000      9.99996     0.98608    0.01396    11.00000
 ====================================================================
 * Total *  0.00000     19.99993     1.97215    0.02792    22.00000

 Normal termination of Gaussian 16 at Mon Nov 18 16:40:07 2024.
