 Gaussian 16, Revision C.01,
 Gaussian 16:  ES64L-G16RevC.01  3-Jul-2019

 -----------------------------------------------------------------
 #RHF/STO-3G int=nobasistransform Symmetry=None 5D 7F Pop=NBO7Read
 -----------------------------------------------------------------

 ---------
 mol06-NBO
 ---------
 Symbolic Z-matrix:
 Charge =  0 Multiplicity = 1

                          Input orientation:
 ---------------------------------------------------------------------
 Center     Atomic      Atomic             Coordinates (Angstroms)
 Number     Number       Type             X           Y           Z
 ---------------------------------------------------------------------
      1          6           0        0.000000    0.000000    0.000000
      2          1           0        0.629118    0.629118    0.629118
      3          1           0       -0.629118   -0.629118    0.629118
      4          1           0        0.629118   -0.629118   -0.629118
      5          1           0       -0.629118    0.629118   -0.629118
 ---------------------------------------------------------------------

 SCF Done:  E(RHF) =  -39.7267153090     A.U. after    6 cycles

 Alpha  occ. eigenvalues --  -11.03027  -0.90866  -0.51787  -0.51787  -0.51787
 Alpha virt. eigenvalues --    0.71332   0.71332   0.71332   0.75100

 Mulliken charges:
               1
     1  C   -0.255329
     2  H    0.063832
     3  H    0.063832
     4  H    0.063832
     5  H    0.063832
 Sum of Mulliken charges =  -0.00000

 Dipole moment (field-independent basis, Debye):
    X=             -0.0000    Y=              0.0000    Z=              0.0000  Tot=              0.0000
 Quadrupole moment (field-independent basis, Debye-Ang):
   XX=             -7.8414   YY=             -7.8414   ZZ=             -7.8414
   XY=              0.0000   XZ=              0.0000   YZ=              0.0000

 Summary of Natural Population Analysis:

                                     Natural Population
             Natural    ---------------------------------------------
  Atom No    Charge        Core      Valence    Rydberg      Total
 --------------------------------------------------------------------
    C  1   -0.20899      2.00000     4.20899    0.00000     6.20899
    H  2    0.05225      0.00000     0.94775    0.00000     0.94775
    H  3    0.05225      0.00000     0.94775    0.00000     0.94775
    H  4    0.05225      0.00000     0.94775    0.00000     0.94775
    H  5    0.05225      0.00000     0.94775    0.00000     0.94775
 ====================================================================
 * Total *  0.00000      2.00000     8.00000    0.00000    10.00000

 Normal termination of Gaussian 16 at Mon Nov 18 15:41:20 2024.
