 Gaussian 16, Revision C.01,
 Gaussian 16:  ES64L-G16RevC.01  3-Jul-2019

 -----------------------------------------------------------------
 #RHF/6-31G* int=nobasistransform Symmetry=None 5D 7F Pop=NBO7Read
 -----------------------------------------------------------------

 ---------
 mol68-NBO
 ---------
 Symbolic Z-matrix:
 Charge =  0 Multiplicity = 1

                          Input orientation:
 ---------------------------------------------------------------------
 Center     Atomic      Atomic             Coordinates (Angstroms)
 Number     Number       Type             X           Y           Z
 ---------------------------------------------------------------------
      1          7           0        0.000000    0.000000    0.489672
      2          9           0        0.000000    1.238218   -0.126952
      3          9           0        1.072328   -0.619109   -0.126952
      4          9           0       -1.072328   -0.619109   -0.126952
 ---------------------------------------------------------------------

 SCF Done:  E(RHF) =  -352.527207629     A.U. after   12 cycles

 Alpha  occ. eigenvalues --  -26.38503 -26.38503 -26.38503 -15.91448  -1.77762
 Alpha  occ. eigenvalues --   -1.64466  -1.64466  -1.11284  -0.83735  -0.83735
 Alpha  occ. eigenvalues --   -0.83198  -0.73026  -0.73026  -0.67306  -0.67202
 Alpha  occ. eigenvalues --   -0.67202  -0.55488
 Alpha virt. eigenvalues --    0.23898   0.23898   0.25943   0.80431   0.80431
 Alpha virt. eigenvalues --    0.84058   0.99485   1.30862   1.30862   1.37248
 Alpha virt. eigenvalues --    1.47059   1.47059   1.55323   1.61356   1.61794

 Mulliken charges:
               1
     1  N    0.986978
     2  F   -0.328993
     3  F   -0.328992
     4  F   -0.328992
 Sum of Mulliken charges =  -0.00000

 Dipole moment (field-independent basis, Debye):
    X=             -0.0000    Y=             -0.0000    Z=              0.3912  Tot=              0.3912
 Quadrupole moment (field-independent basis, Debye-Ang):
   XX=            -20.0514   YY=            -20.0514   ZZ=            -19.5548
   XY=              0.0000   XZ=              0.0000   YZ=             -0.0000

 Summary of Natural Population Analysis:

                                     Natural Population
             Natural    ---------------------------------------------
  Atom No    Charge        Core      Valence    Rydberg      Total
 --------------------------------------------------------------------
    N  1    0.80333      1.99999     4.15906    0.03763     6.19667
    F  2   -0.26778      1.99999     7.25695    0.01083     9.26778
    F  3   -0.26778      1.99999     7.25695    0.01083     9.26778
    F  4   -0.26778      1.99999     7.25695    0.01083     9.26778
 ====================================================================
 * Total *  0.00000      7.99997    25.92991    0.07012    34.00000

 Normal termination of Gaussian 16 at Mon Nov 18 16:40:41 2024.
