 Gaussian 16, Revision C.01,
 Gaussian 16:  ES64L-G16RevC.01  3-Jul-2019

 ------------------------------
 #RHF/6-31G* 5D 7F Pop=NBO7Read
 ------------------------------

 -----
 NBO-a
 -----
 Symbolic Z-matrix:
 Charge =  0 Multiplicity = 1

                         Standard orientation:
 ---------------------------------------------------------------------
 Center     Atomic      Atomic             Coordinates (Angstroms)
 Number     Number       Type             X           Y           Z
 ---------------------------------------------------------------------
      1          3           0        0.000000    0.000000    0.377703
      2          1           0        0.000000    0.000000   -1.133109
 ---------------------------------------------------------------------

 SCF Done:  E(RHF) =  -7.97868722026     A.U. after    9 cycles

 The electronic state is 1-SG.
 Alpha  occ. eigenvalues --   -2.44536  -0.30482
 Alpha virt. eigenvalues --    0.01105   0.06104   0.06104   0.14319   0.20135
 Alpha virt. eigenvalues --    0.22289   0.22289   0.36984   0.57209   0.57209
 Alpha virt. eigenvalues --    0.58219   0.58219   0.80447   1.35843

 Mulliken charges:
               1
     1  Li   0.152262
     2  H   -0.152262
 Sum of Mulliken charges =  -0.00000

 Dipole moment (field-independent basis, Debye):
    X=              0.0000    Y=              0.0000    Z=              5.7422  Tot=              5.7422
 Quadrupole moment (field-independent basis, Debye-Ang):
   XX=             -5.3337   YY=             -5.3337   ZZ=             -6.7335
   XY=              0.0000   XZ=              0.0000   YZ=              0.0000

 Summary of Natural Population Analysis:

                                     Natural Population
             Natural    ---------------------------------------------
  Atom No    Charge        Core      Valence    Rydberg      Total
 --------------------------------------------------------------------
   Li  1    0.74239      1.99994     0.22576    0.03191     2.25761
    H  2   -0.74239      0.00000     1.74238    0.00001     1.74239
 ====================================================================
 * Total *  0.00000      1.99994     1.96814    0.03192     4.00000

 Normal termination of Gaussian 16 at Tue Jul 30 09:09:35 2024.
