 Gaussian 16, Revision C.01,
 Gaussian 16:  ES64L-G16RevC.01  3-Jul-2019

 -----------------------------------------------------------------
 #RHF/STO-3G int=nobasistransform Symmetry=None 5D 7F Pop=NBO7Read
 -----------------------------------------------------------------

 ---------
 mol78-NBO
 ---------
 Symbolic Z-matrix:
 Charge =  0 Multiplicity = 1

                          Input orientation:
 ---------------------------------------------------------------------
 Center     Atomic      Atomic             Coordinates (Angstroms)
 Number     Number       Type             X           Y           Z
 ---------------------------------------------------------------------
      1          6           0        0.000000    0.000000    0.858299
      2          6           0        0.000000   -0.650545   -0.498802
      3          6           0        0.000000    0.650545   -0.498802
      4          1           0        0.912438    0.000000    1.456387
      5          1           0       -0.912438    0.000000    1.456387
      6          1           0        0.000000   -1.584098   -1.038469
      7          1           0        0.000000    1.584098   -1.038469
 ---------------------------------------------------------------------

 SCF Done:  E(RHF) =  -114.399910312     A.U. after    9 cycles

 Alpha  occ. eigenvalues --  -11.04275 -11.03273 -11.03130  -1.10072  -0.77885
 Alpha  occ. eigenvalues --   -0.72005  -0.63155  -0.56094  -0.44143  -0.37635
 Alpha  occ. eigenvalues --   -0.30269
 Alpha virt. eigenvalues --    0.32186   0.50561   0.61342   0.65135   0.69756
 Alpha virt. eigenvalues --    0.76435   0.81605   1.18028

 Mulliken charges:
               1
     1  C   -0.107788
     2  C   -0.082150
     3  C   -0.082150
     4  H    0.045949
     5  H    0.045949
     6  H    0.090095
     7  H    0.090095
 Sum of Mulliken charges =  -0.00000

 Dipole moment (field-independent basis, Debye):
    X=             -0.0000    Y=             -0.0000    Z=             -0.5289  Tot=              0.5289
 Quadrupole moment (field-independent basis, Debye-Ang):
   XX=            -17.7486   YY=            -16.1922   ZZ=            -17.5355
   XY=              0.0000   XZ=             -0.0000   YZ=              0.0000

 Summary of Natural Population Analysis:

                                     Natural Population
             Natural    ---------------------------------------------
  Atom No    Charge        Core      Valence    Rydberg      Total
 --------------------------------------------------------------------
    C  1   -0.08629      2.00000     4.08629    0.00000     6.08629
    C  2   -0.03853      1.99999     4.03854    0.00000     6.03853
    C  3   -0.03853      1.99999     4.03854    0.00000     6.03853
    H  4    0.02093      0.00000     0.97907    0.00000     0.97907
    H  5    0.02093      0.00000     0.97907    0.00000     0.97907
    H  6    0.06075      0.00000     0.93925    0.00000     0.93925
    H  7    0.06075      0.00000     0.93925    0.00000     0.93925
 ====================================================================
 * Total *  0.00000      5.99998    16.00002    0.00000    22.00000

 Normal termination of Gaussian 16 at Mon Nov 18 15:41:33 2024.
