 Gaussian 16, Revision C.01,
 Gaussian 16:  ES64L-G16RevC.01  3-Jul-2019

 -----------------------------------------------------------------
 #RHF/6-31G* int=nobasistransform Symmetry=None 5D 7F Pop=NBO7Read
 -----------------------------------------------------------------

 ---------
 mol74-NBO
 ---------
 Symbolic Z-matrix:
 Charge =  0 Multiplicity = 1

                          Input orientation:
 ---------------------------------------------------------------------
 Center     Atomic      Atomic             Coordinates (Angstroms)
 Number     Number       Type             X           Y           Z
 ---------------------------------------------------------------------
      1          6           0        0.000000    0.000000    0.675402
      2          6           0        0.000000    0.000000   -0.675402
      3         17           0        0.000000    1.448939    1.589701
      4         17           0        0.000000   -1.448939    1.589701
      5         17           0        0.000000   -1.448939   -1.589701
      6         17           0        0.000000    1.448939   -1.589701
 ---------------------------------------------------------------------

 SCF Done:  E(RHF) =  -1913.59565269     A.U. after   11 cycles

 Alpha  occ. eigenvalues -- -104.86126-104.86125-104.86125-104.86123 -11.39335
 Alpha  occ. eigenvalues --  -11.39185 -10.60027 -10.60025 -10.60025 -10.60023
 Alpha  occ. eigenvalues --   -8.06897  -8.06896  -8.06895  -8.06895  -8.06511
 Alpha  occ. eigenvalues --   -8.06510  -8.06510  -8.06510  -8.06508  -8.06508
 Alpha  occ. eigenvalues --   -8.06508  -8.06507  -1.27190  -1.20063  -1.14653
 Alpha  occ. eigenvalues --   -1.11992  -0.98602  -0.75639  -0.68426  -0.67023
 Alpha  occ. eigenvalues --   -0.61946  -0.58223  -0.53614  -0.51266  -0.50537
 Alpha  occ. eigenvalues --   -0.49982  -0.49287  -0.48520  -0.45250  -0.36556
 Alpha virt. eigenvalues --    0.10548   0.15263   0.15720   0.15897   0.29811
 Alpha virt. eigenvalues --    0.41806   0.44055   0.49760   0.50372   0.54915
 Alpha virt. eigenvalues --    0.56592   0.57052   0.59279   0.60926   0.61012

 Mulliken charges:
               1
     1  C   -0.200146
     2  C   -0.200146
     3  Cl   0.100073
     4  Cl   0.100073
     5  Cl   0.100073
     6  Cl   0.100073
 Sum of Mulliken charges =  -0.00000

 Dipole moment (field-independent basis, Debye):
    X=             -0.0000    Y=             -0.0000    Z=             -0.0000  Tot=              0.0000
 Quadrupole moment (field-independent basis, Debye-Ang):
   XX=            -62.1590   YY=            -59.7340   ZZ=            -61.4211
   XY=             -0.0000   XZ=              0.0000   YZ=             -0.0000

 Summary of Natural Population Analysis:

                                     Natural Population
             Natural    ---------------------------------------------
  Atom No    Charge        Core      Valence    Rydberg      Total
 --------------------------------------------------------------------
    C  1   -0.13031      1.99999     4.09361    0.03670     6.13031
    C  2   -0.13031      1.99999     4.09361    0.03670     6.13031
   Cl  3    0.06515      9.99999     6.90512    0.02974    16.93485
   Cl  4    0.06515      9.99999     6.90512    0.02974    16.93485
   Cl  5    0.06515      9.99999     6.90512    0.02974    16.93485
   Cl  6    0.06515      9.99999     6.90512    0.02974    16.93485
 ====================================================================
 * Total *  0.00000     43.99994    35.80771    0.19236    80.00000

 Normal termination of Gaussian 16 at Mon Nov 18 16:40:43 2024.
