 Gaussian 16, Revision C.01,
 Gaussian 16:  ES64L-G16RevC.01  3-Jul-2019

 -----------------------------------------------------------------
 #RHF/STO-3G int=nobasistransform Symmetry=None 5D 7F Pop=NBO7Read
 -----------------------------------------------------------------

 ---------
 mol56-NBO
 ---------
 Symbolic Z-matrix:
 Charge =  0 Multiplicity = 1

                          Input orientation:
 ---------------------------------------------------------------------
 Center     Atomic      Atomic             Coordinates (Angstroms)
 Number     Number       Type             X           Y           Z
 ---------------------------------------------------------------------
      1          5           0        0.000000    0.000000    0.000000
      2         17           0        0.000000    1.735352    0.000000
      3         17           0        1.502859   -0.867676    0.000000
      4         17           0       -1.502859   -0.867676    0.000000
 ---------------------------------------------------------------------

 SCF Done:  E(RHF) =  -1388.22757251     A.U. after    8 cycles

 Alpha  occ. eigenvalues -- -103.76545-103.76545-103.76545 -10.44474 -10.44470
 Alpha  occ. eigenvalues --  -10.44470  -7.88862  -7.88848  -7.88848  -7.88374
 Alpha  occ. eigenvalues --   -7.88357  -7.88357  -7.88305  -7.88280  -7.88280
 Alpha  occ. eigenvalues --   -7.63868  -1.13748  -1.06153  -1.06153  -0.65229
 Alpha  occ. eigenvalues --   -0.57204  -0.57204  -0.52784  -0.44374  -0.44374
 Alpha  occ. eigenvalues --   -0.44305  -0.44305  -0.42830
 Alpha virt. eigenvalues --    0.15965   0.35954   0.47333   0.47333

 Mulliken charges:
               1
     1  B    0.453608
     2  Cl  -0.151203
     3  Cl  -0.151203
     4  Cl  -0.151203
 Sum of Mulliken charges =  -0.00000

 Dipole moment (field-independent basis, Debye):
    X=             -0.0000    Y=              0.0000    Z=              0.0000  Tot=              0.0000
 Quadrupole moment (field-independent basis, Debye-Ang):
   XX=            -44.2901   YY=            -44.2901   ZZ=            -38.6966
   XY=              0.0000   XZ=             -0.0000   YZ=             -0.0000

 Summary of Natural Population Analysis:

                                     Natural Population
             Natural    ---------------------------------------------
  Atom No    Charge        Core      Valence    Rydberg      Total
 --------------------------------------------------------------------
    B  1    0.65822      2.00000     2.34178    0.00000     4.34178
   Cl  2   -0.21941      9.99998     7.21943    0.00000    17.21941
   Cl  3   -0.21941      9.99998     7.21943    0.00000    17.21941
   Cl  4   -0.21941      9.99998     7.21943    0.00000    17.21941
 ====================================================================
 * Total *  0.00000     31.99993    24.00007    0.00000    56.00000

 Normal termination of Gaussian 16 at Mon Nov 18 15:41:21 2024.
