 Gaussian 16, Revision C.01,
 Gaussian 16:  ES64L-G16RevC.01  3-Jul-2019

 -----------------------------------------------------------------
 #RHF/STO-3G int=nobasistransform Symmetry=None 5D 7F Pop=NBO7Read
 -----------------------------------------------------------------

 ---------
 mol64-NBO
 ---------
 Symbolic Z-matrix:
 Charge =  0 Multiplicity = 1

                          Input orientation:
 ---------------------------------------------------------------------
 Center     Atomic      Atomic             Coordinates (Angstroms)
 Number     Number       Type             X           Y           Z
 ---------------------------------------------------------------------
      1         14           0        0.000000    0.000000    0.000000
      2          9           0        0.912806    0.912806    0.912806
      3          9           0       -0.912806   -0.912806    0.912806
      4          9           0       -0.912806    0.912806   -0.912806
      5          9           0        0.912806   -0.912806   -0.912806
 ---------------------------------------------------------------------

 SCF Done:  E(RHF) =  -677.846986212     A.U. after    8 cycles

 Alpha  occ. eigenvalues --  -68.14941 -25.86123 -25.86095 -25.86095 -25.86095
 Alpha  occ. eigenvalues --   -6.12610  -4.15261  -4.15261  -4.15261  -1.51566
 Alpha  occ. eigenvalues --   -1.46877  -1.46877  -1.46877  -0.66964  -0.57449
 Alpha  occ. eigenvalues --   -0.57449  -0.57449  -0.47606  -0.47606  -0.46096
 Alpha  occ. eigenvalues --   -0.46096  -0.46096  -0.43881  -0.43881  -0.43881
 Alpha virt. eigenvalues --    0.42845   0.56297   0.56297   0.56297

 Mulliken charges:
               1
     1  Si   1.387869
     2  F   -0.346967
     3  F   -0.346967
     4  F   -0.346967
     5  F   -0.346967
 Sum of Mulliken charges =  -0.00000

 Dipole moment (field-independent basis, Debye):
    X=              0.0000    Y=              0.0000    Z=              0.0000  Tot=              0.0000
 Quadrupole moment (field-independent basis, Debye-Ang):
   XX=            -29.0184   YY=            -29.0184   ZZ=            -29.0184
   XY=              0.0000   XZ=              0.0000   YZ=              0.0000

 Summary of Natural Population Analysis:

                                     Natural Population
             Natural    ---------------------------------------------
  Atom No    Charge        Core      Valence    Rydberg      Total
 --------------------------------------------------------------------
   Si  1    1.54014     10.00000     2.45986    0.00000    12.45986
    F  2   -0.38504      2.00000     7.38504    0.00000     9.38504
    F  3   -0.38504      2.00000     7.38504    0.00000     9.38504
    F  4   -0.38504      2.00000     7.38504    0.00000     9.38504
    F  5   -0.38504      2.00000     7.38504    0.00000     9.38504
 ====================================================================
 * Total *  0.00000     18.00000    32.00000    0.00000    50.00000

 Normal termination of Gaussian 16 at Mon Nov 18 15:41:18 2024.
