 Gaussian 16, Revision C.01,
 Gaussian 16:  ES64L-G16RevC.01  3-Jul-2019

 ------------------------
 #RHF/6-31G* Pop=NBO7Read
 ------------------------

 -----
 NBO-a
 -----
 Symbolic Z-matrix:
 Charge =  0 Multiplicity = 1

                         Standard orientation:
 ---------------------------------------------------------------------
 Center     Atomic      Atomic             Coordinates (Angstroms)
 Number     Number       Type             X           Y           Z
 ---------------------------------------------------------------------
      1          4           0        0.000000    0.000000    0.731519
      2          3           0        0.000000    0.000000   -1.652391
      3          1           0        0.000000    0.000000    2.031099
 ---------------------------------------------------------------------

 SCF Done:  E(RHF) =  -22.6076979536     A.U. after   10 cycles

 The electronic state is 1-SG.
 Alpha  occ. eigenvalues --   -4.62961  -2.43973  -0.43324  -0.23833
 Alpha virt. eigenvalues --    0.01940   0.04451   0.04451   0.12931   0.14514
 Alpha virt. eigenvalues --    0.14514   0.19272   0.22280   0.22280   0.28489
 Alpha virt. eigenvalues --    0.44388   0.52333   0.53050   0.53050   0.58007

 Mulliken charges:
               1
     1  Be   0.236828
     2  Li  -0.113907
     3  H   -0.122921
 Sum of Mulliken charges =  -0.00000

 Dipole moment (field-independent basis, Debye):
    X=              0.0000    Y=              0.0000    Z=             -4.8438  Tot=              4.8438
 Quadrupole moment (field-independent basis, Debye-Ang):
   XX=            -12.4863   YY=            -12.4863   ZZ=             -5.8890
   XY=              0.0000   XZ=              0.0000   YZ=              0.0000

 Summary of Natural Population Analysis:

                                     Natural Population
             Natural    ---------------------------------------------
  Atom No    Charge        Core      Valence    Rydberg      Total
 --------------------------------------------------------------------
   Be  1    0.53929      2.00000     1.27889    0.18182     3.46071
   Li  2    0.19189      1.99996     0.72876    0.07939     2.80811
    H  3   -0.73118      0.00000     1.71446    0.01672     1.73118
 ====================================================================
 * Total *  0.00000      3.99995     3.72212    0.27793     8.00000

 Normal termination of Gaussian 16 at Wed Jul 24 12:08:03 2024.
