 Gaussian 16, Revision C.01,
 Gaussian 16:  ES64L-G16RevC.01  3-Jul-2019

 -----------------------------------------------------------------
 #RHF/STO-3G int=nobasistransform Symmetry=None 5D 7F Pop=NBO7Read
 -----------------------------------------------------------------

 ---------
 mol28-NBO
 ---------
 Symbolic Z-matrix:
 Charge =  0 Multiplicity = 1

                          Input orientation:
 ---------------------------------------------------------------------
 Center     Atomic      Atomic             Coordinates (Angstroms)
 Number     Number       Type             X           Y           Z
 ---------------------------------------------------------------------
      1          8           0        0.000000    0.000000    0.493003
      2          6           0        0.000000    0.000000   -0.657337
 ---------------------------------------------------------------------

 SCF Done:  E(RHF) =  -111.225383831     A.U. after    8 cycles

 Alpha  occ. eigenvalues --  -20.41315 -11.09190  -1.44118  -0.69611  -0.53683
 Alpha  occ. eigenvalues --   -0.53683  -0.44475
 Alpha virt. eigenvalues --    0.30414   0.30414   1.00055

 Mulliken charges:
               1
     1  O   -0.198528
     2  C    0.198528
 Sum of Mulliken charges =  -0.00000

 Dipole moment (field-independent basis, Debye):
    X=              0.0000    Y=              0.0000    Z=              0.1118  Tot=              0.1118
 Quadrupole moment (field-independent basis, Debye-Ang):
   XX=             -8.7058   YY=             -8.7058   ZZ=            -11.7182
   XY=              0.0000   XZ=             -0.0000   YZ=             -0.0000

 Summary of Natural Population Analysis:

                                     Natural Population
             Natural    ---------------------------------------------
  Atom No    Charge        Core      Valence    Rydberg      Total
 --------------------------------------------------------------------
    O  1   -0.28807      2.00000     6.28807    0.00000     8.28807
    C  2    0.28807      2.00000     3.71193    0.00000     5.71193
 ====================================================================
 * Total *  0.00000      4.00000    10.00000    0.00000    14.00000

 Normal termination of Gaussian 16 at Mon Nov 18 15:41:19 2024.
