 Gaussian 16, Revision C.01,
 Gaussian 16:  ES64L-G16RevC.01  3-Jul-2019

 ----------------------------
 #RHF/STO-3G nmr Pop=NBO7Read
 ----------------------------

 -------
 NBO-LiH
 -------
 Symbolic Z-matrix:
 Charge =  0 Multiplicity = 1

                         Standard orientation:
 ---------------------------------------------------------------------
 Center     Atomic      Atomic             Coordinates (Angstroms)
 Number     Number       Type             X           Y           Z
 ---------------------------------------------------------------------
      1          3           0        0.000000    0.000000    0.377703
      2          1           0        0.000000    0.000000   -1.133108
 ---------------------------------------------------------------------

 SCF Done:  E(RHF) =  -7.86338214042     A.U. after    8 cycles

      1  Li   Isotropic =    87.2729   Anisotropy =    21.2395

      2  H    Isotropic =    25.9845   Anisotropy =     4.6724

 The electronic state is 1-SG.
 Alpha  occ. eigenvalues --   -2.34700  -0.29269
 Alpha virt. eigenvalues --    0.07892   0.16378   0.16378   0.57158

 Mulliken charges:
               1
     1  Li  -0.016756
     2  H    0.016756
 Sum of Mulliken charges =  -0.00000

 Dipole moment (field-independent basis, Debye):
    X=              0.0000    Y=              0.0000    Z=              4.8390  Tot=              4.8390
 Quadrupole moment (field-independent basis, Debye-Ang):
   XX=             -5.2344   YY=             -5.2344   ZZ=             -5.1243
   XY=              0.0000   XZ=              0.0000   YZ=              0.0000

 Summary of Natural Population Analysis:

                                     Natural Population
             Natural    ---------------------------------------------
  Atom No    Charge        Core      Valence    Rydberg      Total
 --------------------------------------------------------------------
   Li  1    0.44786      1.99993     0.39085    0.16137     2.55214
    H  2   -0.44786      0.00000     1.44786    0.00000     1.44786
 ====================================================================
 * Total *  0.00000      1.99993     1.83870    0.16137     4.00000

 Normal termination of Gaussian 16 at Fri Aug  2 15:39:29 2024.
