 Gaussian 16, Revision C.01,
 Gaussian 16:  ES64L-G16RevC.01  3-Jul-2019

 -----------------------------------------------------------------
 #RHF/STO-3G int=nobasistransform Symmetry=None 5D 7F Pop=NBO7Read
 -----------------------------------------------------------------

 ---------
 mol00-NBO
 ---------
 Symbolic Z-matrix:
 Charge =  0 Multiplicity = 1

                          Input orientation:
 ---------------------------------------------------------------------
 Center     Atomic      Atomic             Coordinates (Angstroms)
 Number     Number       Type             X           Y           Z
 ---------------------------------------------------------------------
      1          3           0        0.000000    0.000000    0.410000
      2          1           0        0.000000    0.000000   -1.230000
 ---------------------------------------------------------------------

 SCF Done:  E(RHF) =  -7.86031310071     A.U. after    8 cycles

 Alpha  occ. eigenvalues --   -2.34975  -0.28184
 Alpha virt. eigenvalues --    0.07784   0.16394   0.16394   0.53640

 Mulliken charges:
               1
     1  Li  -0.015149
     2  H    0.015149
 Sum of Mulliken charges =  -0.00000

 Dipole moment (field-independent basis, Debye):
    X=             -0.0000    Y=              0.0000    Z=              4.8693  Tot=              4.8693
 Quadrupole moment (field-independent basis, Debye-Ang):
   XX=             -5.2999   YY=             -5.2999   ZZ=             -4.8695
   XY=             -0.0000   XZ=              0.0000   YZ=             -0.0000

 Summary of Natural Population Analysis:

                                     Natural Population
             Natural    ---------------------------------------------
  Atom No    Charge        Core      Valence    Rydberg      Total
 --------------------------------------------------------------------
   Li  1    0.41155      1.99996     0.42220    0.16630     2.58845
    H  2   -0.41155      0.00000     1.41155    0.00000     1.41155
 ====================================================================
 * Total *  0.00000      1.99996     1.83375    0.16630     4.00000

 Normal termination of Gaussian 16 at Mon Nov 18 15:41:18 2024.
