 Gaussian 16, Revision C.01,
 Gaussian 16:  ES64L-G16RevC.01  3-Jul-2019

 -----------------------------------------------------------------
 #RHF/STO-3G int=nobasistransform Symmetry=None 5D 7F Pop=NBO7Read
 -----------------------------------------------------------------

 ----------
 mol105-NBO
 ----------
 Symbolic Z-matrix:
 Charge =  0 Multiplicity = 1

                          Input orientation:
 ---------------------------------------------------------------------
 Center     Atomic      Atomic             Coordinates (Angstroms)
 Number     Number       Type             X           Y           Z
 ---------------------------------------------------------------------
      1          6           0       -0.038450   -0.397326    0.739421
      2          7           0       -0.038450    0.875189    0.000000
      3          6           0       -0.038450   -0.397326   -0.739421
      4          1           0        0.903052    1.268239    0.000000
      5          1           0       -0.955661   -0.604926    1.280047
      6          1           0       -0.955661   -0.604926   -1.280047
      7          1           0        0.869409   -0.708399    1.249033
      8          1           0        0.869409   -0.708399   -1.249033
 ---------------------------------------------------------------------

 SCF Done:  E(RHF) =  -131.398545224     A.U. after   10 cycles

 Alpha  occ. eigenvalues --  -15.33599 -11.07377 -11.07376  -1.21698  -0.85656
 Alpha  occ. eigenvalues --   -0.80357  -0.66204  -0.59653  -0.49732  -0.43641
 Alpha  occ. eigenvalues --   -0.42664  -0.33254
 Alpha virt. eigenvalues --    0.47060   0.57020   0.62939   0.67570   0.69567
 Alpha virt. eigenvalues --    0.77126   0.78821   0.83827

 Mulliken charges:
               1
     1  C   -0.072741
     2  N   -0.313948
     3  C   -0.072741
     4  H    0.162595
     5  H    0.079403
     6  H    0.079403
     7  H    0.069014
     8  H    0.069014
 Sum of Mulliken charges =   0.00000

 Dipole moment (field-independent basis, Debye):
    X=              1.4221    Y=             -1.1108    Z=             -0.0000  Tot=              1.8045
 Quadrupole moment (field-independent basis, Debye-Ang):
   XX=            -16.7832   YY=            -20.0057   ZZ=            -17.7109
   XY=              1.8119   XZ=             -0.0000   YZ=             -0.0000

 Summary of Natural Population Analysis:

                                     Natural Population
             Natural    ---------------------------------------------
  Atom No    Charge        Core      Valence    Rydberg      Total
 --------------------------------------------------------------------
    C  1   -0.02545      2.00000     4.02545    0.00000     6.02545
    N  2   -0.29038      2.00000     5.29038    0.00000     7.29038
    C  3   -0.02545      2.00000     4.02545    0.00000     6.02545
    H  4    0.15022      0.00000     0.84978    0.00000     0.84978
    H  5    0.05205      0.00000     0.94795    0.00000     0.94795
    H  6    0.05205      0.00000     0.94795    0.00000     0.94795
    H  7    0.04348      0.00000     0.95652    0.00000     0.95652
    H  8    0.04348      0.00000     0.95652    0.00000     0.95652
 ====================================================================
 * Total *  0.00000      5.99999    18.00001    0.00000    24.00000

 Normal termination of Gaussian 16 at Mon Nov 18 15:41:28 2024.
