 Gaussian 16, Revision C.01,
 Gaussian 16:  ES64L-G16RevC.01  3-Jul-2019

 -----------------------------------------------------------------
 #RHF/STO-3G int=nobasistransform Symmetry=None 5D 7F Pop=NBO7Read
 -----------------------------------------------------------------

 ----------
 mol131-NBO
 ----------
 Symbolic Z-matrix:
 Charge =  0 Multiplicity = 1

                          Input orientation:
 ---------------------------------------------------------------------
 Center     Atomic      Atomic             Coordinates (Angstroms)
 Number     Number       Type             X           Y           Z
 ---------------------------------------------------------------------
      1          8           0        0.000000    0.000000    1.163339
      2          6           0        0.000000    1.094700    0.348039
      3          6           0        0.000000   -1.094700    0.348039
      4          6           0        0.000000    0.713200   -0.962161
      5          6           0        0.000000   -0.713200   -0.962161
      6          1           0        0.000000    2.049359    0.851113
      7          1           0        0.000000   -2.049359    0.851113
      8          1           0        0.000000    1.370828   -1.819738
      9          1           0        0.000000   -1.370828   -1.819738
 ---------------------------------------------------------------------

 SCF Done:  E(RHF) =  -225.749425591     A.U. after   11 cycles

 Alpha  occ. eigenvalues --  -20.37144 -11.07099 -11.07065 -11.01918 -11.01908
 Alpha  occ. eigenvalues --   -1.39141  -1.01992  -0.93799  -0.73682  -0.72338
 Alpha  occ. eigenvalues --   -0.67720  -0.55728  -0.53714  -0.51536  -0.49595
 Alpha  occ. eigenvalues --   -0.45188  -0.32404  -0.26208
 Alpha virt. eigenvalues --    0.28552   0.38706   0.57323   0.62001   0.63493
 Alpha virt. eigenvalues --    0.68502   0.75320   0.77375   0.93656   0.93921
 Alpha virt. eigenvalues --    1.13429

 Mulliken charges:
               1
     1  O   -0.199586
     2  C    0.047239
     3  C    0.047239
     4  C   -0.100378
     5  C   -0.100378
     6  H    0.081812
     7  H    0.081812
     8  H    0.071120
     9  H    0.071120
 Sum of Mulliken charges =   0.00000

 Dipole moment (field-independent basis, Debye):
    X=              0.0000    Y=             -0.0000    Z=             -0.4301  Tot=              0.4301
 Quadrupole moment (field-independent basis, Debye-Ang):
   XX=            -28.0138   YY=            -23.7221   ZZ=            -27.1183
   XY=              0.0000   XZ=             -0.0000   YZ=              0.0000

 Summary of Natural Population Analysis:

                                     Natural Population
             Natural    ---------------------------------------------
  Atom No    Charge        Core      Valence    Rydberg      Total
 --------------------------------------------------------------------
    O  1   -0.18622      2.00000     6.18622    0.00000     8.18622
    C  2    0.10642      1.99999     3.89359    0.00000     5.89358
    C  3    0.10642      1.99999     3.89359    0.00000     5.89358
    C  4   -0.10587      2.00000     4.10587    0.00000     6.10587
    C  5   -0.10587      2.00000     4.10587    0.00000     6.10587
    H  6    0.04268      0.00000     0.95732    0.00000     0.95732
    H  7    0.04268      0.00000     0.95732    0.00000     0.95732
    H  8    0.04988      0.00000     0.95012    0.00000     0.95012
    H  9    0.04988      0.00000     0.95012    0.00000     0.95012
 ====================================================================
 * Total *  0.00000      9.99998    26.00002    0.00000    36.00000

 Normal termination of Gaussian 16 at Mon Nov 18 15:41:48 2024.
