 Gaussian 16, Revision C.01,
 Gaussian 16:  ES64L-G16RevC.01  3-Jul-2019

 -----------------------------------------------------------------
 #RHF/6-31G* int=nobasistransform Symmetry=None 5D 7F Pop=NBO7Read
 -----------------------------------------------------------------

 ---------
 mol56-NBO
 ---------
 Symbolic Z-matrix:
 Charge =  0 Multiplicity = 1

                          Input orientation:
 ---------------------------------------------------------------------
 Center     Atomic      Atomic             Coordinates (Angstroms)
 Number     Number       Type             X           Y           Z
 ---------------------------------------------------------------------
      1          5           0        0.000000    0.000000    0.000000
      2         17           0        0.000000    1.735352    0.000000
      3         17           0        1.502859   -0.867676    0.000000
      4         17           0       -1.502859   -0.867676    0.000000
 ---------------------------------------------------------------------

 SCF Done:  E(RHF) =  -1403.24899698     A.U. after   10 cycles

 Alpha  occ. eigenvalues -- -104.84391-104.84391-104.84388 -10.58583 -10.58583
 Alpha  occ. eigenvalues --  -10.58580  -8.05391  -8.05391  -8.05391  -8.05153
 Alpha  occ. eigenvalues --   -8.05153  -8.05152  -8.05106  -8.05106  -8.05106
 Alpha  occ. eigenvalues --   -7.77231  -1.18858  -1.12503  -1.12503  -0.71042
 Alpha  occ. eigenvalues --   -0.61700  -0.61700  -0.56029  -0.49584  -0.49584
 Alpha  occ. eigenvalues --   -0.48547  -0.48547  -0.45967
 Alpha virt. eigenvalues --    0.07782   0.20289   0.26129   0.26129   0.44055
 Alpha virt. eigenvalues --    0.52365   0.52365   0.55570   0.56352   0.56352
 Alpha virt. eigenvalues --    0.60521   0.62708   0.62708   0.64209   0.64209

 Mulliken charges:
               1
     1  B    0.281008
     2  Cl  -0.093669
     3  Cl  -0.093669
     4  Cl  -0.093669
 Sum of Mulliken charges =  -0.00000

 Dipole moment (field-independent basis, Debye):
    X=             -0.0000    Y=              0.0000    Z=             -0.0000  Tot=              0.0000
 Quadrupole moment (field-independent basis, Debye-Ang):
   XX=            -44.7527   YY=            -44.7527   ZZ=            -42.4543
   XY=              0.0000   XZ=              0.0000   YZ=              0.0000

 Summary of Natural Population Analysis:

                                     Natural Population
             Natural    ---------------------------------------------
  Atom No    Charge        Core      Valence    Rydberg      Total
 --------------------------------------------------------------------
    B  1    0.50165      2.00000     2.42530    0.07305     4.49835
   Cl  2   -0.16722      9.99999     7.15036    0.01687    17.16722
   Cl  3   -0.16722      9.99999     7.15036    0.01687    17.16722
   Cl  4   -0.16722      9.99999     7.15036    0.01687    17.16722
 ====================================================================
 * Total *  0.00000     31.99996    23.87638    0.12365    56.00000

 Normal termination of Gaussian 16 at Mon Nov 18 16:40:12 2024.
