 Gaussian 16, Revision C.01,
 Gaussian 16:  ES64L-G16RevC.01  3-Jul-2019

 -----------------------------------------------------------------
 #RHF/STO-3G int=nobasistransform Symmetry=None 5D 7F Pop=NBO7Read
 -----------------------------------------------------------------

 ---------
 mol11-NBO
 ---------
 Symbolic Z-matrix:
 Charge =  0 Multiplicity = 1

                          Input orientation:
 ---------------------------------------------------------------------
 Center     Atomic      Atomic             Coordinates (Angstroms)
 Number     Number       Type             X           Y           Z
 ---------------------------------------------------------------------
      1          8           0        0.000000    0.000000    0.119262
      2          1           0        0.000000    0.763239   -0.477047
      3          1           0        0.000000   -0.763239   -0.477047
 ---------------------------------------------------------------------

 SCF Done:  E(RHF) =  -74.9644048484     A.U. after    7 cycles

 Alpha  occ. eigenvalues --  -20.24383  -1.26327  -0.61113  -0.45287  -0.39092
 Alpha virt. eigenvalues --    0.59535   0.72749

 Mulliken charges:
               1
     1  O   -0.354958
     2  H    0.177479
     3  H    0.177479
 Sum of Mulliken charges =   0.00000

 Dipole moment (field-independent basis, Debye):
    X=              0.0000    Y=             -0.0000    Z=             -1.7141  Tot=              1.7141
 Quadrupole moment (field-independent basis, Debye-Ang):
   XX=             -6.1047   YY=             -4.3689   ZZ=             -5.3879
   XY=              0.0000   XZ=             -0.0000   YZ=             -0.0000

 Summary of Natural Population Analysis:

                                     Natural Population
             Natural    ---------------------------------------------
  Atom No    Charge        Core      Valence    Rydberg      Total
 --------------------------------------------------------------------
    O  1   -0.39097      2.00000     6.39097    0.00000     8.39097
    H  2    0.19548      0.00000     0.80452    0.00000     0.80452
    H  3    0.19548      0.00000     0.80452    0.00000     0.80452
 ====================================================================
 * Total *  0.00000      2.00000     8.00000    0.00000    10.00000

 Normal termination of Gaussian 16 at Mon Nov 18 15:41:33 2024.
