 Gaussian 16, Revision C.01,
 Gaussian 16:  ES64L-G16RevC.01  3-Jul-2019

 -----------------------------------------------------------------
 #RHF/6-31G* int=nobasistransform Symmetry=None 5D 7F Pop=NBO7Read
 -----------------------------------------------------------------

 ---------
 mol79-NBO
 ---------
 Symbolic Z-matrix:
 Charge =  0 Multiplicity = 1

                          Input orientation:
 ---------------------------------------------------------------------
 Center     Atomic      Atomic             Coordinates (Angstroms)
 Number     Number       Type             X           Y           Z
 ---------------------------------------------------------------------
      1          6           0        1.291290    0.133682    0.000000
      2          6           0        0.000000    0.479159    0.000000
      3          1           0        1.601160   -0.907420    0.000000
      4          1           0        2.080800    0.877337    0.000000
      5          1           0       -0.263221    1.536098    0.000000
      6          6           0       -1.139757   -0.492341    0.000000
      7          1           0       -0.776859   -1.523291    0.000000
      8          1           0       -1.775540   -0.352861    0.880420
      9          1           0       -1.775540   -0.352861   -0.880420
 ---------------------------------------------------------------------

 SCF Done:  E(RHF) =  -117.070139654     A.U. after   12 cycles

 Alpha  occ. eigenvalues --  -11.23079 -11.21737 -11.21511  -1.05931  -0.92841
 Alpha  occ. eigenvalues --   -0.75416  -0.63434  -0.57830  -0.56504  -0.51976
 Alpha  occ. eigenvalues --   -0.48839  -0.35289
 Alpha virt. eigenvalues --    0.18773   0.25488   0.28196   0.29645   0.32708
 Alpha virt. eigenvalues --    0.33225   0.34978   0.44859   0.54628   0.69203
 Alpha virt. eigenvalues --    0.73713   0.75156   0.83607   0.85228   0.90846

 Mulliken charges:
               1
     1  C   -0.402708
     2  C   -0.122188
     3  H    0.171675
     4  H    0.176487
     5  H    0.178643
     6  C   -0.524895
     7  H    0.174755
     8  H    0.174116
     9  H    0.174116
 Sum of Mulliken charges =   0.00000

 Dipole moment (field-independent basis, Debye):
    X=             -0.3104    Y=              0.0026    Z=             -0.0000  Tot=              0.3105
 Quadrupole moment (field-independent basis, Debye-Ang):
   XX=            -19.0881   YY=            -18.9890   ZZ=            -21.8575
   XY=             -0.2798   XZ=              0.0000   YZ=              0.0000

 Summary of Natural Population Analysis:

                                     Natural Population
             Natural    ---------------------------------------------
  Atom No    Charge        Core      Valence    Rydberg      Total
 --------------------------------------------------------------------
    C  1   -0.43560      1.99999     4.41566    0.01995     6.43560
    C  2   -0.20106      1.99999     4.17950    0.02157     6.20106
    H  3    0.20368      0.00000     0.79563    0.00069     0.79632
    H  4    0.21175      0.00000     0.78774    0.00051     0.78825
    H  5    0.21377      0.00000     0.78524    0.00099     0.78623
    C  6   -0.66331      1.99999     4.64983    0.01349     6.66331
    H  7    0.22069      0.00000     0.77823    0.00108     0.77931
    H  8    0.22505      0.00000     0.77378    0.00117     0.77495
    H  9    0.22505      0.00000     0.77378    0.00117     0.77495
 ====================================================================
 * Total *  0.00000      5.99998    17.93941    0.06061    24.00000

 Normal termination of Gaussian 16 at Mon Nov 18 16:40:42 2024.
