 Gaussian 16, Revision C.01,
 Gaussian 16:  ES64L-G16RevC.01  3-Jul-2019

 -----------------------------------------------------------------
 #RHF/STO-3G int=nobasistransform Symmetry=None 5D 7F Pop=NBO7Read
 -----------------------------------------------------------------

 ----------
 mol117-NBO
 ----------
 Symbolic Z-matrix:
 Charge =  0 Multiplicity = 1

                          Input orientation:
 ---------------------------------------------------------------------
 Center     Atomic      Atomic             Coordinates (Angstroms)
 Number     Number       Type             X           Y           Z
 ---------------------------------------------------------------------
      1          6           0        1.514343    0.679412    0.000000
      2          6           0        0.000000    0.826412    0.000000
      3         16           0       -0.756068   -0.831284    0.000000
      4          1           0       -2.035346   -0.427738    0.000000
      5          1           0       -0.324970    1.376482    0.885793
      6          1           0       -0.324970    1.376482   -0.885793
      7          1           0        1.986503    1.665082    0.000000
      8          1           0        1.854904    0.137645    0.885494
      9          1           0        1.854904    0.137645   -0.885494
 ---------------------------------------------------------------------

 SCF Done:  E(RHF) =  -471.474355977     A.U. after    9 cycles

 Alpha  occ. eigenvalues --  -90.73371 -11.04823 -11.04269  -8.63661  -6.26907
 Alpha  occ. eigenvalues --   -6.26671  -6.26368  -1.01378  -0.87959  -0.76182
 Alpha  occ. eigenvalues --   -0.59002  -0.56373  -0.49276  -0.47212  -0.43053
 Alpha  occ. eigenvalues --   -0.35544  -0.25642
 Alpha virt. eigenvalues --    0.45580   0.50733   0.63951   0.68681   0.69460
 Alpha virt. eigenvalues --    0.74179   0.77163   0.78012

 Mulliken charges:
               1
     1  C   -0.174579
     2  C   -0.179051
     3  S    0.099756
     4  H   -0.045613
     5  H    0.057630
     6  H    0.057630
     7  H    0.060015
     8  H    0.062105
     9  H    0.062105
 Sum of Mulliken charges =  -0.00000

 Dipole moment (field-independent basis, Debye):
    X=             -0.2422    Y=              0.9831    Z=             -0.0000  Tot=              1.0125
 Quadrupole moment (field-independent basis, Debye-Ang):
   XX=            -23.6335   YY=            -25.8804   ZZ=            -25.4157
   XY=             -0.2041   XZ=             -0.0000   YZ=             -0.0000

 Summary of Natural Population Analysis:

                                     Natural Population
             Natural    ---------------------------------------------
  Atom No    Charge        Core      Valence    Rydberg      Total
 --------------------------------------------------------------------
    C  1   -0.13578      2.00000     4.13578    0.00000     6.13578
    C  2   -0.10261      2.00000     4.10261    0.00000     6.10261
    S  3    0.06610      9.99998     5.93391    0.00000    15.93390
    H  4   -0.03091      0.00000     1.03091    0.00000     1.03091
    H  5    0.03331      0.00000     0.96669    0.00000     0.96669
    H  6    0.03331      0.00000     0.96669    0.00000     0.96669
    H  7    0.04453      0.00000     0.95547    0.00000     0.95547
    H  8    0.04603      0.00000     0.95397    0.00000     0.95397
    H  9    0.04603      0.00000     0.95397    0.00000     0.95397
 ====================================================================
 * Total *  0.00000     13.99998    20.00002    0.00000    34.00000

 Normal termination of Gaussian 16 at Mon Nov 18 15:41:30 2024.
