 Gaussian 16, Revision C.01,
 Gaussian 16:  ES64L-G16RevC.01  3-Jul-2019

 -----------------------------------------------------------------
 #RHF/6-31G* int=nobasistransform Symmetry=None 5D 7F Pop=NBO7Read
 -----------------------------------------------------------------

 ---------
 mol73-NBO
 ---------
 Symbolic Z-matrix:
 Charge =  0 Multiplicity = 1

                          Input orientation:
 ---------------------------------------------------------------------
 Center     Atomic      Atomic             Coordinates (Angstroms)
 Number     Number       Type             X           Y           Z
 ---------------------------------------------------------------------
      1          6           0        0.000000    0.000000    0.663230
      2          6           0        0.000000    0.000000   -0.663230
      3          9           0        0.000000    1.112665    1.385652
      4          9           0        0.000000   -1.112665    1.385652
      5          9           0        0.000000    1.112665   -1.385652
      6          9           0        0.000000   -1.112665   -1.385652
 ---------------------------------------------------------------------

 SCF Done:  E(RHF) =  -473.407372738     A.U. after   10 cycles

 Alpha  occ. eigenvalues --  -26.36471 -26.36468 -26.36467 -26.36466 -11.45096
 Alpha  occ. eigenvalues --  -11.44930  -1.71793  -1.70237  -1.65848  -1.64838
 Alpha  occ. eigenvalues --   -1.09767  -0.90748  -0.85227  -0.83290  -0.79427
 Alpha  occ. eigenvalues --   -0.77925  -0.75325  -0.72793  -0.70744  -0.70156
 Alpha  occ. eigenvalues --   -0.68692  -0.67147  -0.66581  -0.39720
 Alpha virt. eigenvalues --    0.19195   0.26178   0.32790   0.33766   0.57282
 Alpha virt. eigenvalues --    0.65871   0.67677   0.69163   0.71938   0.77776
 Alpha virt. eigenvalues --    0.78641   0.80315   0.83024   1.16342   1.40257

 Mulliken charges:
               1
     1  C    0.759105
     2  C    0.759105
     3  F   -0.379552
     4  F   -0.379552
     5  F   -0.379552
     6  F   -0.379552
 Sum of Mulliken charges =  -0.00000

 Dipole moment (field-independent basis, Debye):
    X=             -0.0000    Y=              0.0000    Z=             -0.0000  Tot=              0.0000
 Quadrupole moment (field-independent basis, Debye-Ang):
   XX=            -28.6985   YY=            -32.3408   ZZ=            -32.2272
   XY=             -0.0000   XZ=             -0.0000   YZ=             -0.0000

 Summary of Natural Population Analysis:

                                     Natural Population
             Natural    ---------------------------------------------
  Atom No    Charge        Core      Valence    Rydberg      Total
 --------------------------------------------------------------------
    C  1    0.76034      1.99999     3.20293    0.03674     5.23966
    C  2    0.76034      1.99999     3.20293    0.03674     5.23966
    F  3   -0.38017      1.99999     7.36932    0.01085     9.38017
    F  4   -0.38017      1.99999     7.36932    0.01085     9.38017
    F  5   -0.38017      1.99999     7.36932    0.01085     9.38017
    F  6   -0.38017      1.99999     7.36932    0.01085     9.38017
 ====================================================================
 * Total *  0.00000     11.99996    35.88315    0.11689    48.00000

 Normal termination of Gaussian 16 at Mon Nov 18 16:40:44 2024.
