 Gaussian 16, Revision C.01,
 Gaussian 16:  ES64L-G16RevC.01  3-Jul-2019

 -----------------------
 #RHF/4-31G Pop=NBO7Read
 -----------------------

 -----
 NBO-a
 -----
 Symbolic Z-matrix:
 Charge =  0 Multiplicity = 1

                         Standard orientation:
 ---------------------------------------------------------------------
 Center     Atomic      Atomic             Coordinates (Angstroms)
 Number     Number       Type             X           Y           Z
 ---------------------------------------------------------------------
      1          5           0        0.000000    0.000000    0.528635
      2          3           0       -0.000000    0.000000   -1.664885
      3          1           0       -0.000000    0.966981    1.175740
      4          1           0       -0.000000   -0.966981    1.175740
 ---------------------------------------------------------------------

 SCF Done:  E(RHF) =  -33.1679459739     A.U. after   11 cycles

 The electronic state is 1-A1.
 Alpha  occ. eigenvalues --   -7.52035  -2.42805  -0.61992  -0.42678  -0.25269
 Alpha virt. eigenvalues --    0.02251   0.05213   0.07276   0.14871   0.17891
 Alpha virt. eigenvalues --    0.24660   0.25867   0.26102   0.39783   0.41873
 Alpha virt. eigenvalues --    0.48083   0.77269   0.83857   0.85341   1.15987

 Mulliken charges:
               1
     1  B    0.045383
     2  Li   0.214300
     3  H   -0.129841
     4  H   -0.129841
 Sum of Mulliken charges =  -0.00000

 Dipole moment (field-independent basis, Debye):
    X=              0.0000    Y=              0.0000    Z=             -5.1385  Tot=              5.1385
 Quadrupole moment (field-independent basis, Debye-Ang):
   XX=            -10.9278   YY=            -13.8000   ZZ=             -2.0782
   XY=             -0.0000   XZ=              0.0000   YZ=             -0.0000

 Summary of Natural Population Analysis:

                                     Natural Population
             Natural    ---------------------------------------------
  Atom No    Charge        Core      Valence    Rydberg      Total
 --------------------------------------------------------------------
    B  1   -0.28753      1.99996     3.25712    0.03046     5.28753
   Li  2    0.56997      1.99995     0.40434    0.02573     2.43003
    H  3   -0.14122      0.00000     1.14104    0.00018     1.14122
    H  4   -0.14122      0.00000     1.14104    0.00018     1.14122
 ====================================================================
 * Total *  0.00000      3.99991     5.94354    0.05655    10.00000

 Normal termination of Gaussian 16 at Wed Jul 24 13:57:02 2024.
