 Gaussian 16, Revision C.01,
 Gaussian 16:  ES64L-G16RevC.01  3-Jul-2019

 -----------------------------------------------------------------
 #RHF/STO-3G int=nobasistransform Symmetry=None 5D 7F Pop=NBO7Read
 -----------------------------------------------------------------

 ----------
 mol126-NBO
 ----------
 Symbolic Z-matrix:
 Charge =  0 Multiplicity = 1

                          Input orientation:
 ---------------------------------------------------------------------
 Center     Atomic      Atomic             Coordinates (Angstroms)
 Number     Number       Type             X           Y           Z
 ---------------------------------------------------------------------
      1          6           0        0.000000    0.523878    0.000000
      2          6           0        1.486075    0.716377    0.000000
      3         17           0       -0.452286   -1.217999    0.000000
      4          8           0       -0.845539    1.374940    0.000000
      5          1           0        1.701027    1.784793    0.000000
      6          1           0        1.917847    0.240067    0.882679
      7          1           0        1.917847    0.240067   -0.882679
 ---------------------------------------------------------------------

 SCF Done:  E(RHF) =  -604.965202963     A.U. after   12 cycles

 Alpha  occ. eigenvalues -- -103.68626 -20.36002 -11.21724 -11.09942 -10.37161
 Alpha  occ. eigenvalues --   -7.81557  -7.81028  -7.81004  -1.39783  -1.05748
 Alpha  occ. eigenvalues --   -0.97713  -0.71422  -0.62517  -0.60701  -0.60057
 Alpha  occ. eigenvalues --   -0.53007  -0.48934  -0.39584  -0.38778  -0.37030
 Alpha virt. eigenvalues --    0.24645   0.34538   0.61949   0.67228   0.67594
 Alpha virt. eigenvalues --    0.71033   0.94803

 Mulliken charges:
               1
     1  C    0.274083
     2  C   -0.196006
     3  Cl  -0.192761
     4  O   -0.178534
     5  H    0.094993
     6  H    0.099112
     7  H    0.099112
 Sum of Mulliken charges =  -0.00000

 Dipole moment (field-independent basis, Debye):
    X=              2.3141    Y=              1.2383    Z=              0.0000  Tot=              2.6246
 Quadrupole moment (field-independent basis, Debye-Ang):
   XX=            -27.9191   YY=            -31.2027   ZZ=            -27.0639
   XY=              1.2692   XZ=              0.0000   YZ=             -0.0000

 Summary of Natural Population Analysis:

                                     Natural Population
             Natural    ---------------------------------------------
  Atom No    Charge        Core      Valence    Rydberg      Total
 --------------------------------------------------------------------
    C  1    0.39162      2.00000     3.60838    0.00000     5.60838
    C  2   -0.20175      2.00000     4.20175    0.00000     6.20175
   Cl  3   -0.23127     10.00000     7.23127    0.00000    17.23127
    O  4   -0.20474      2.00000     6.20474    0.00000     8.20474
    H  5    0.07860      0.00000     0.92140    0.00000     0.92140
    H  6    0.08377      0.00000     0.91623    0.00000     0.91623
    H  7    0.08377      0.00000     0.91623    0.00000     0.91623
 ====================================================================
 * Total *  0.00000     15.99999    24.00001    0.00000    40.00000

 Normal termination of Gaussian 16 at Mon Nov 18 15:41:49 2024.
