 Gaussian 16, Revision C.01,
 Gaussian 16:  ES64L-G16RevC.01  3-Jul-2019

 ------------------------
 #RHF/6-31G* Pop=NBO7Read
 ------------------------

 -----
 NBO-a
 -----
 Symbolic Z-matrix:
 Charge =  0 Multiplicity = 1

                         Standard orientation:
 ---------------------------------------------------------------------
 Center     Atomic      Atomic             Coordinates (Angstroms)
 Number     Number       Type             X           Y           Z
 ---------------------------------------------------------------------
      1          5           0        0.000000    0.000000    0.528635
      2          3           0       -0.000000    0.000000   -1.664885
      3          1           0       -0.000000    0.966981    1.175740
      4          1           0       -0.000000   -0.966981    1.175740
 ---------------------------------------------------------------------

 SCF Done:  E(RHF) =  -33.2080620451     A.U. after   11 cycles

 The electronic state is 1-A1.
 Alpha  occ. eigenvalues --   -7.53286  -2.42852  -0.61671  -0.42749  -0.25303
 Alpha virt. eigenvalues --    0.01647   0.04767   0.06574   0.12683   0.16609
 Alpha virt. eigenvalues --    0.20003   0.21915   0.23140   0.39787   0.40531
 Alpha virt. eigenvalues --    0.40573   0.58463   0.59026   0.62144   0.62829

 Mulliken charges:
               1
     1  B   -0.001375
     2  Li   0.158708
     3  H   -0.078666
     4  H   -0.078666
 Sum of Mulliken charges =  -0.00000

 Dipole moment (field-independent basis, Debye):
    X=              0.0000    Y=             -0.0000    Z=             -5.1874  Tot=              5.1874
 Quadrupole moment (field-independent basis, Debye-Ang):
   XX=            -10.9149   YY=            -13.6039   ZZ=             -2.0983
   XY=             -0.0000   XZ=              0.0000   YZ=              0.0000

 Summary of Natural Population Analysis:

                                     Natural Population
             Natural    ---------------------------------------------
  Atom No    Charge        Core      Valence    Rydberg      Total
 --------------------------------------------------------------------
    B  1   -0.29171      2.00000     3.24772    0.04400     5.29171
   Li  2    0.59443      1.99993     0.38604    0.01960     2.40557
    H  3   -0.15136      0.00000     1.15134    0.00002     1.15136
    H  4   -0.15136      0.00000     1.15134    0.00002     1.15136
 ====================================================================
 * Total *  0.00000      3.99993     5.93645    0.06362    10.00000

 Normal termination of Gaussian 16 at Wed Jul 24 12:08:04 2024.
