 Gaussian 16, Revision C.01,
 Gaussian 16:  ES64L-G16RevC.01  3-Jul-2019

 ----------------------------------------------------
 #OPT=VeryTight Int=UltraFine RHF/STO-3G Pop=NBO7Read
 ----------------------------------------------------

 ---------
 NBO-CH3Li
 ---------
 Symbolic Z-matrix:
 Charge =  0 Multiplicity = 1

 SCF Done:  E(RHF) =  -46.4215876250     A.U. after   10 cycles
 SCF Done:  E(RHF) =  -46.4215878785     A.U. after    7 cycles
 SCF Done:  E(RHF) =  -46.4215878958     A.U. after    6 cycles
 SCF Done:  E(RHF) =  -46.4215878959     A.U. after    4 cycles
 Optimization completed.
    -- Stationary point found.

                         Standard orientation:
 ---------------------------------------------------------------------
 Center     Atomic      Atomic             Coordinates (Angstroms)
 Number     Number       Type             X           Y           Z
 ---------------------------------------------------------------------
      1          6           0        0.398110   -0.000000    0.000000
      2          3           0       -1.610328   -0.000000    0.000000
      3          1           0        0.814108   -0.876269    0.480982
      4          1           0        0.814108    0.854678    0.518380
      5          1           0        0.814107    0.021592   -0.999363
 ---------------------------------------------------------------------

 The electronic state is 1-A.
 Alpha  occ. eigenvalues --  -10.91966  -2.33275  -0.80005  -0.43296  -0.43296
 Alpha  occ. eigenvalues --   -0.23959
 Alpha virt. eigenvalues --    0.08536   0.18415   0.18415   0.44867   0.80043
 Alpha virt. eigenvalues --    0.80043   0.88284

 Mulliken charges:
               1
     1  C   -0.241659
     2  Li   0.157988
     3  H    0.027890
     4  H    0.027890
     5  H    0.027890
 Sum of Mulliken charges =   0.00000

 Dipole moment (field-independent basis, Debye):
    X=             -4.2658    Y=              0.0000    Z=             -0.0000  Tot=              4.2658
 Quadrupole moment (field-independent basis, Debye-Ang):
   XX=              0.0684   YY=            -11.2404   ZZ=            -11.2404
   XY=             -0.0000   XZ=              0.0000   YZ=             -0.0000

 Summary of Natural Population Analysis:

                                     Natural Population
             Natural    ---------------------------------------------
  Atom No    Charge        Core      Valence    Rydberg      Total
 --------------------------------------------------------------------
    C  1   -0.51097      1.99999     4.51098    0.00000     6.51097
   Li  2    0.46537      1.99995     0.40299    0.13169     2.53463
    H  3    0.01520      0.00000     0.98480    0.00000     0.98480
    H  4    0.01520      0.00000     0.98480    0.00000     0.98480
    H  5    0.01520      0.00000     0.98480    0.00000     0.98480
 ====================================================================
 * Total *  0.00000      3.99994     7.86837    0.13169    12.00000

 Normal termination of Gaussian 16 at Wed Jul 24 11:04:34 2024.
