 Gaussian 16, Revision C.01,
 Gaussian 16:  ES64L-G16RevC.01  3-Jul-2019

 ----------------------------------------------------
 #OPT=VeryTight Int=UltraFine RHF/STO-3G Pop=NBO7Read
 ----------------------------------------------------

 -------
 NBO-CH4
 -------
 Symbolic Z-matrix:
 Charge =  0 Multiplicity = 1

 SCF Done:  E(RHF) =  -39.7262784021     A.U. after    6 cycles
 SCF Done:  E(RHF) =  -39.7268094764     A.U. after    5 cycles
 SCF Done:  E(RHF) =  -39.7268636774     A.U. after    5 cycles
 Optimization completed.
    -- Stationary point found.

                         Standard orientation:
 ---------------------------------------------------------------------
 Center     Atomic      Atomic             Coordinates (Angstroms)
 Number     Number       Type             X           Y           Z
 ---------------------------------------------------------------------
      1          6           0        0.000000    0.000000    0.000000
      2          1           0       -0.899570   -0.000000    0.603062
      3          1           0       -0.268716    0.000000   -1.049143
      4          1           0        0.584143   -0.884274    0.223040
      5          1           0        0.584143    0.884274    0.223040
 ---------------------------------------------------------------------

 The electronic state is 1-A.
 Alpha  occ. eigenvalues --  -11.02969  -0.91210  -0.52050  -0.52050  -0.52050
 Alpha virt. eigenvalues --    0.71922   0.71922   0.71922   0.76106

 Mulliken charges:
               1
     1  C   -0.262635
     2  H    0.065659
     3  H    0.065659
     4  H    0.065659
     5  H    0.065659
 Sum of Mulliken charges =  -0.00000

 Dipole moment (field-independent basis, Debye):
    X=             -0.0000    Y=             -0.0000    Z=              0.0000  Tot=              0.0000
 Quadrupole moment (field-independent basis, Debye-Ang):
   XX=             -7.8407   YY=             -7.8407   ZZ=             -7.8407
   XY=             -0.0000   XZ=             -0.0000   YZ=              0.0000

 Summary of Natural Population Analysis:

                                     Natural Population
             Natural    ---------------------------------------------
  Atom No    Charge        Core      Valence    Rydberg      Total
 --------------------------------------------------------------------
    C  1   -0.21570      2.00000     4.21570    0.00000     6.21570
    H  2    0.05392      0.00000     0.94608    0.00000     0.94608
    H  3    0.05392      0.00000     0.94608    0.00000     0.94608
    H  4    0.05392      0.00000     0.94608    0.00000     0.94608
    H  5    0.05392      0.00000     0.94608    0.00000     0.94608
 ====================================================================
 * Total *  0.00000      2.00000     8.00000    0.00000    10.00000

 Normal termination of Gaussian 16 at Wed Jul 24 11:04:40 2024.
