 Gaussian 16, Revision C.01,
 Gaussian 16:  ES64L-G16RevC.01  3-Jul-2019

 ------------------------
 #RHF/6-31G* Pop=NBO7Read
 ------------------------

 -----
 NBO-a
 -----
 Symbolic Z-matrix:
 Charge =  0 Multiplicity = 1

                         Standard orientation:
 ---------------------------------------------------------------------
 Center     Atomic      Atomic             Coordinates (Angstroms)
 Number     Number       Type             X           Y           Z
 ---------------------------------------------------------------------
      1          6           0        0.687742   -0.000000   -0.007229
      2          1           0        1.113617   -0.882096   -0.470788
      3          1           0        1.113618    0.882098   -0.470787
      4          1           0        1.009090   -0.000001    1.033227
      5          5           0       -0.882133    0.000000   -0.011952
      6          1           0       -1.476056   -0.998978    0.005741
      7          1           0       -1.476056    0.998978    0.005741
 ---------------------------------------------------------------------

 SCF Done:  E(RHF) =  -65.4405162225     A.U. after   11 cycles

 The electronic state is 1-A.
 Alpha  occ. eigenvalues --  -11.19363  -7.58978  -0.94932  -0.67140  -0.57065
 Alpha  occ. eigenvalues --   -0.54890  -0.47094  -0.46567
 Alpha virt. eigenvalues --    0.11235   0.25610   0.30555   0.31089   0.35715
 Alpha virt. eigenvalues --    0.38965   0.39824   0.59343   0.62168   0.65640
 Alpha virt. eigenvalues --    0.68792   0.80274   0.91905   0.95744   1.13614

 Mulliken charges:
               1
     1  C   -0.685654
     2  H    0.171503
     3  H    0.171503
     4  H    0.173756
     5  B    0.272495
     6  H   -0.051801
     7  H   -0.051801
 Sum of Mulliken charges =  -0.00000

 Dipole moment (field-independent basis, Debye):
    X=              0.3824    Y=             -0.0000    Z=              0.0607  Tot=              0.3872
 Quadrupole moment (field-independent basis, Debye-Ang):
   XX=            -16.4582   YY=            -15.6923   ZZ=            -13.3617
   XY=             -0.0000   XZ=              0.1265   YZ=              0.0000

 Summary of Natural Population Analysis:

                                     Natural Population
             Natural    ---------------------------------------------
  Atom No    Charge        Core      Valence    Rydberg      Total
 --------------------------------------------------------------------
    C  1   -1.04841      2.00000     5.03885    0.00956     7.04841
    H  2    0.23455      0.00000     0.76479    0.00065     0.76545
    H  3    0.23455      0.00000     0.76479    0.00065     0.76545
    H  4    0.24845      0.00000     0.75124    0.00032     0.75155
    B  5    0.57875      2.00000     2.41110    0.01015     4.42125
    H  6   -0.12395      0.00000     1.12391    0.00004     1.12395
    H  7   -0.12395      0.00000     1.12391    0.00004     1.12395
 ====================================================================
 * Total *  0.00000      3.99999    11.97858    0.02143    16.00000

 Normal termination of Gaussian 16 at Wed Jul 24 12:08:07 2024.
