 Gaussian 16, Revision C.01,
 Gaussian 16:  ES64L-G16RevC.01  3-Jul-2019

 -----------------------------------------------------------------
 #RHF/6-31G* int=nobasistransform Symmetry=None 5D 7F Pop=NBO7Read
 -----------------------------------------------------------------

 ---------
 mol45-NBO
 ---------
 Symbolic Z-matrix:
 Charge =  0 Multiplicity = 1

                          Input orientation:
 ---------------------------------------------------------------------
 Center     Atomic      Atomic             Coordinates (Angstroms)
 Number     Number       Type             X           Y           Z
 ---------------------------------------------------------------------
      1         14           0        0.000000    0.000000    0.560846
      2          8           0        0.000000    0.000000   -0.981480
 ---------------------------------------------------------------------

 SCF Done:  E(RHF) =  -363.773544280     A.U. after   11 cycles

 Alpha  occ. eigenvalues --  -68.81559 -20.53859  -6.17396  -4.27530  -4.27530
 Alpha  occ. eigenvalues --   -4.27400  -1.24944  -0.60418  -0.46068  -0.46068
 Alpha  occ. eigenvalues --   -0.43281
 Alpha virt. eigenvalues --    0.04952   0.04952   0.16275   0.29778   0.38817
 Alpha virt. eigenvalues --    0.38817   0.56999   0.78608   0.78608   0.86981
 Alpha virt. eigenvalues --    0.86981   1.12444   1.30414   1.30414   1.44290

 Mulliken charges:
               1
     1  Si   0.696227
     2  O   -0.696227
 Sum of Mulliken charges =  -0.00000

 Dipole moment (field-independent basis, Debye):
    X=              0.0000    Y=             -0.0000    Z=              3.5083  Tot=              3.5083
 Quadrupole moment (field-independent basis, Debye-Ang):
   XX=            -15.9295   YY=            -15.9295   ZZ=            -21.3126
   XY=             -0.0000   XZ=              0.0000   YZ=             -0.0000

 Summary of Natural Population Analysis:

                                     Natural Population
             Natural    ---------------------------------------------
  Atom No    Charge        Core      Valence    Rydberg      Total
 --------------------------------------------------------------------
   Si  1    1.22542      9.99997     2.73351    0.04110    12.77458
    O  2   -1.22542      2.00000     7.20023    0.02520     9.22542
 ====================================================================
 * Total *  0.00000     11.99997     9.93373    0.06630    22.00000

 Normal termination of Gaussian 16 at Mon Nov 18 16:40:05 2024.
