 Gaussian 16, Revision C.01,
 Gaussian 16:  ES64L-G16RevC.01  3-Jul-2019

 -----------------------------------------------------------------
 #RHF/STO-3G int=nobasistransform Symmetry=None 5D 7F Pop=NBO7Read
 -----------------------------------------------------------------

 ----------
 mol134-NBO
 ----------
 Symbolic Z-matrix:
 Charge =  0 Multiplicity = 1

                          Input orientation:
 ---------------------------------------------------------------------
 Center     Atomic      Atomic             Coordinates (Angstroms)
 Number     Number       Type             X           Y           Z
 ---------------------------------------------------------------------
      1          7           0        0.000000    0.000000    1.424672
      2          6           0        0.000000    0.000000   -1.386178
      3          6           0        0.000000    1.144277    0.720306
      4          6           0        0.000000   -1.144277    0.720306
      5          6           0        0.000000   -1.196404   -0.672917
      6          6           0        0.000000    1.196404   -0.672917
      7          1           0        0.000000    0.000000   -2.473052
      8          1           0        0.000000    2.060723    1.307477
      9          1           0        0.000000   -2.060723    1.307477
     10          1           0        0.000000   -2.155293   -1.183103
     11          1           0        0.000000    2.155293   -1.183103
 ---------------------------------------------------------------------

 SCF Done:  E(RHF) =  -243.638050540     A.U. after   12 cycles

 Alpha  occ. eigenvalues --  -15.34062 -11.07349 -11.07328 -11.05718 -11.04690
 Alpha  occ. eigenvalues --  -11.04683  -1.20035  -1.03181  -0.97659  -0.80194
 Alpha  occ. eigenvalues --   -0.79460  -0.67397  -0.60609  -0.59063  -0.54830
 Alpha  occ. eigenvalues --   -0.51836  -0.49197  -0.45733  -0.33549  -0.32053
 Alpha  occ. eigenvalues --   -0.29894
 Alpha virt. eigenvalues --    0.24279   0.25033   0.48234   0.57700   0.62770
 Alpha virt. eigenvalues --    0.67077   0.70626   0.70877   0.76593   0.85728
 Alpha virt. eigenvalues --    0.87615   0.88397   1.07559   1.09059

 Mulliken charges:
               1
     1  N   -0.244897
     2  C   -0.049559
     3  C    0.035569
     4  C    0.035569
     5  C   -0.070534
     6  C   -0.070534
     7  H    0.072950
     8  H    0.073340
     9  H    0.073340
    10  H    0.072377
    11  H    0.072377
 Sum of Mulliken charges =  -0.00000

 Dipole moment (field-independent basis, Debye):
    X=             -0.0000    Y=              0.0000    Z=             -2.0480  Tot=              2.0480
 Quadrupole moment (field-independent basis, Debye-Ang):
   XX=            -33.6958   YY=            -29.0288   ZZ=            -35.1053
   XY=              0.0000   XZ=              0.0000   YZ=              0.0000

 Summary of Natural Population Analysis:

                                     Natural Population
             Natural    ---------------------------------------------
  Atom No    Charge        Core      Valence    Rydberg      Total
 --------------------------------------------------------------------
    N  1   -0.22535      1.99999     5.22535    0.00000     7.22535
    C  2   -0.01583      2.00000     4.01583    0.00000     6.01583
    C  3    0.07010      2.00000     3.92990    0.00000     5.92990
    C  4    0.07010      2.00000     3.92990    0.00000     5.92990
    C  5   -0.05896      2.00000     4.05896    0.00000     6.05896
    C  6   -0.05896      2.00000     4.05896    0.00000     6.05896
    H  7    0.04618      0.00000     0.95382    0.00000     0.95382
    H  8    0.03899      0.00000     0.96101    0.00000     0.96101
    H  9    0.03899      0.00000     0.96101    0.00000     0.96101
    H 10    0.04736      0.00000     0.95264    0.00000     0.95264
    H 11    0.04736      0.00000     0.95264    0.00000     0.95264
 ====================================================================
 * Total *  0.00000     11.99998    30.00002    0.00000    42.00000

 Normal termination of Gaussian 16 at Mon Nov 18 15:41:57 2024.
