 Gaussian 16, Revision C.01,
 Gaussian 16:  ES64L-G16RevC.01  3-Jul-2019

 -----------------------------------------------------------------
 #RHF/6-31G* int=nobasistransform Symmetry=None 5D 7F Pop=NBO7Read
 -----------------------------------------------------------------

 ---------
 mol04-NBO
 ---------
 Symbolic Z-matrix:
 Charge =  0 Multiplicity = 1

                          Input orientation:
 ---------------------------------------------------------------------
 Center     Atomic      Atomic             Coordinates (Angstroms)
 Number     Number       Type             X           Y           Z
 ---------------------------------------------------------------------
      1          6           0        0.000000    0.000000    0.174343
      2          1           0        0.000000    0.862232   -0.523029
      3          1           0        0.000000   -0.862232   -0.523029
 ---------------------------------------------------------------------

 SCF Done:  E(RHF) =  -38.8718639019     A.U. after    9 cycles

 Alpha  occ. eigenvalues --  -11.28299  -0.88892  -0.55992  -0.38629
 Alpha virt. eigenvalues --    0.07251   0.26192   0.31491   0.72798   0.79015
 Alpha virt. eigenvalues --    0.80989   0.97214   1.12603   1.16861   1.95795
 Alpha virt. eigenvalues --    1.96255   1.97672   2.29684   2.56367

 Mulliken charges:
               1
     1  C   -0.287071
     2  H    0.143535
     3  H    0.143535
 Sum of Mulliken charges =   0.00000

 Dipole moment (field-independent basis, Debye):
    X=              0.0000    Y=              0.0000    Z=             -1.9938  Tot=              1.9938
 Quadrupole moment (field-independent basis, Debye-Ang):
   XX=             -6.1226   YY=             -7.1181   ZZ=             -9.2620
   XY=              0.0000   XZ=              0.0000   YZ=              0.0000

 Summary of Natural Population Analysis:

                                     Natural Population
             Natural    ---------------------------------------------
  Atom No    Charge        Core      Valence    Rydberg      Total
 --------------------------------------------------------------------
    C  1   -0.15123      1.99999     4.13300    0.01824     6.15123
    H  2    0.07561      0.00000     0.92358    0.00080     0.92439
    H  3    0.07561      0.00000     0.92358    0.00080     0.92439
 ====================================================================
 * Total *  0.00000      1.99999     5.98016    0.01985     8.00000

 Normal termination of Gaussian 16 at Mon Nov 18 16:40:08 2024.
