 Gaussian 16, Revision C.01,
 Gaussian 16:  ES64L-G16RevC.01  3-Jul-2019

 -----------------------------------------------------------------
 #RHF/6-31G* int=nobasistransform Symmetry=None 5D 7F Pop=NBO7Read
 -----------------------------------------------------------------

 ----------
 mol131-NBO
 ----------
 Symbolic Z-matrix:
 Charge =  0 Multiplicity = 1

                          Input orientation:
 ---------------------------------------------------------------------
 Center     Atomic      Atomic             Coordinates (Angstroms)
 Number     Number       Type             X           Y           Z
 ---------------------------------------------------------------------
      1          8           0        0.000000    0.000000    1.163339
      2          6           0        0.000000    1.094700    0.348039
      3          6           0        0.000000   -1.094700    0.348039
      4          6           0        0.000000    0.713200   -0.962161
      5          6           0        0.000000   -0.713200   -0.962161
      6          1           0        0.000000    2.049359    0.851113
      7          1           0        0.000000   -2.049359    0.851113
      8          1           0        0.000000    1.370828   -1.819738
      9          1           0        0.000000   -1.370828   -1.819738
 ---------------------------------------------------------------------

 SCF Done:  E(RHF) =  -228.621507860     A.U. after   12 cycles

 Alpha  occ. eigenvalues --  -20.62340 -11.28466 -11.28461 -11.22751 -11.22655
 Alpha  occ. eigenvalues --   -1.45054  -1.07817  -0.99711  -0.79957  -0.77653
 Alpha  occ. eigenvalues --   -0.73263  -0.62378  -0.60353  -0.56990  -0.56067
 Alpha  occ. eigenvalues --   -0.53410  -0.39102  -0.31211
 Alpha virt. eigenvalues --    0.16837   0.24656   0.26373   0.29757   0.30010
 Alpha virt. eigenvalues --    0.31216   0.36203   0.38629   0.47841   0.54992
 Alpha virt. eigenvalues --    0.66117   0.71302   0.75890   0.80729   0.82032

 Mulliken charges:
               1
     1  O   -0.581867
     2  C    0.126127
     3  C    0.126127
     4  C   -0.274608
     5  C   -0.274608
     6  H    0.223983
     7  H    0.223983
     8  H    0.215432
     9  H    0.215432
 Sum of Mulliken charges =  -0.00000

 Dipole moment (field-independent basis, Debye):
    X=             -0.0000    Y=              0.0000    Z=             -0.8545  Tot=              0.8545
 Quadrupole moment (field-independent basis, Debye-Ang):
   XX=            -31.9255   YY=            -23.3178   ZZ=            -28.0771
   XY=             -0.0000   XZ=              0.0000   YZ=              0.0000

 Summary of Natural Population Analysis:

                                     Natural Population
             Natural    ---------------------------------------------
  Atom No    Charge        Core      Valence    Rydberg      Total
 --------------------------------------------------------------------
    O  1   -0.55637      1.99999     6.53759    0.01879     8.55637
    C  2    0.15861      1.99999     3.81244    0.02896     5.84139
    C  3    0.15861      1.99999     3.81244    0.02896     5.84139
    C  4   -0.34293      1.99999     4.32328    0.01966     6.34293
    C  5   -0.34293      1.99999     4.32328    0.01966     6.34293
    H  6    0.21986      0.00000     0.77987    0.00027     0.78014
    H  7    0.21986      0.00000     0.77987    0.00027     0.78014
    H  8    0.24265      0.00000     0.75716    0.00019     0.75735
    H  9    0.24265      0.00000     0.75716    0.00019     0.75735
 ====================================================================
 * Total *  0.00000      9.99997    25.88309    0.11695    36.00000

 Normal termination of Gaussian 16 at Mon Nov 18 16:41:12 2024.
