 Gaussian 16, Revision C.01,
 Gaussian 16:  ES64L-G16RevC.01  3-Jul-2019

 -----------------------
 #RHF/4-31G Pop=NBO7Read
 -----------------------

 -----
 NBO-a
 -----
 Symbolic Z-matrix:
 Charge =  0 Multiplicity = 1

                         Standard orientation:
 ---------------------------------------------------------------------
 Center     Atomic      Atomic             Coordinates (Angstroms)
 Number     Number       Type             X           Y           Z
 ---------------------------------------------------------------------
      1          6           0        0.362429    0.627747    0.256279
      2          1           0        0.374371    0.648435    1.342061
      3          1           0        1.390097    0.648435   -0.094385
      4          1           0       -0.133486    1.528077   -0.094389
      5          6           0       -0.362429   -0.627747   -0.256279
      6          1           0       -1.390097   -0.648435    0.094385
      7          1           0       -0.374371   -0.648435   -1.342061
      8          1           0        0.133486   -1.528077    0.094389
 ---------------------------------------------------------------------

 SCF Done:  E(RHF) =  -79.1158222598     A.U. after    9 cycles

 The electronic state is 1-AG.
 Alpha  occ. eigenvalues --  -11.19090 -11.19066  -1.01971  -0.84541  -0.59838
 Alpha  occ. eigenvalues --   -0.59838  -0.50273  -0.48606  -0.48606
 Alpha virt. eigenvalues --    0.24468   0.30618   0.31535   0.31535   0.34506
 Alpha virt. eigenvalues --    0.34506   0.41959   0.81901   0.81901   0.84245
 Alpha virt. eigenvalues --    0.97585   0.97586   1.00827   1.21912   1.23515

 Mulliken charges:
               1
     1  C   -0.450905
     2  H    0.150302
     3  H    0.150301
     4  H    0.150302
     5  C   -0.450905
     6  H    0.150301
     7  H    0.150302
     8  H    0.150302
 Sum of Mulliken charges =  -0.00000

 Dipole moment (field-independent basis, Debye):
    X=              0.0000    Y=              0.0000    Z=             -0.0000  Tot=              0.0000
 Quadrupole moment (field-independent basis, Debye-Ang):
   XX=            -15.1111   YY=            -15.3509   ZZ=            -15.0511
   XY=             -0.2076   XZ=             -0.0848   YZ=             -0.1468

 Summary of Natural Population Analysis:

                                     Natural Population
             Natural    ---------------------------------------------
  Atom No    Charge        Core      Valence    Rydberg      Total
 --------------------------------------------------------------------
    C  1   -0.69052      1.99993     4.68746    0.00313     6.69052
    H  2    0.23017      0.00000     0.76864    0.00118     0.76983
    H  3    0.23017      0.00000     0.76864    0.00118     0.76983
    H  4    0.23017      0.00000     0.76864    0.00118     0.76983
    C  5   -0.69052      1.99993     4.68746    0.00313     6.69052
    H  6    0.23017      0.00000     0.76864    0.00118     0.76983
    H  7    0.23017      0.00000     0.76864    0.00118     0.76983
    H  8    0.23017      0.00000     0.76864    0.00118     0.76983
 ====================================================================
 * Total *  0.00000      3.99986    13.98678    0.01336    18.00000

 Normal termination of Gaussian 16 at Wed Jul 24 13:56:58 2024.
