 Gaussian 16, Revision C.01,
 Gaussian 16:  ES64L-G16RevC.01  3-Jul-2019

 -----------------------------------------------------------------
 #RHF/6-31G* int=nobasistransform Symmetry=None 5D 7F Pop=NBO7Read
 -----------------------------------------------------------------

 ----------
 mol120-NBO
 ----------
 Symbolic Z-matrix:
 Charge =  0 Multiplicity = 1

                          Input orientation:
 ---------------------------------------------------------------------
 Center     Atomic      Atomic             Coordinates (Angstroms)
 Number     Number       Type             X           Y           Z
 ---------------------------------------------------------------------
      1          6           0        0.000000    0.807636    0.000000
      2          6           0        1.505827    0.647832    0.000000
      3         17           0       -0.823553   -0.779970    0.000000
      4          1           0       -0.344979    1.341649    0.885248
      5          1           0       -0.344979    1.341649   -0.885248
      6          1           0        1.976903    1.634877    0.000000
      7          1           0        1.839246    0.104250    0.885398
      8          1           0        1.839246    0.104250   -0.885398
 ---------------------------------------------------------------------

 SCF Done:  E(RHF) =  -538.129066971     A.U. after   12 cycles

 Alpha  occ. eigenvalues -- -104.79966 -11.29169 -11.23203 -10.53936  -8.00785
 Alpha  occ. eigenvalues --   -8.00462  -8.00458  -1.13833  -1.00134  -0.84390
 Alpha  occ. eigenvalues --   -0.65163  -0.61291  -0.56178  -0.53009  -0.50786
 Alpha  occ. eigenvalues --   -0.43009  -0.42936
 Alpha virt. eigenvalues --    0.19829   0.24607   0.28275   0.28567   0.31208
 Alpha virt. eigenvalues --    0.32280   0.37663   0.59336   0.63411   0.66029
 Alpha virt. eigenvalues --    0.66111   0.69370   0.73117   0.80743   0.83574

 Mulliken charges:
               1
     1  C   -0.386049
     2  C   -0.492509
     3  Cl  -0.108522
     4  H    0.215412
     5  H    0.215412
     6  H    0.176261
     7  H    0.189997
     8  H    0.189997
 Sum of Mulliken charges =  -0.00000

 Dipole moment (field-independent basis, Debye):
    X=              1.2502    Y=              1.9999    Z=              0.0000  Tot=              2.3585
 Quadrupole moment (field-independent basis, Debye-Ang):
   XX=            -27.3193   YY=            -25.9815   ZZ=            -26.4224
   XY=             -0.4637   XZ=             -0.0000   YZ=              0.0000

 Summary of Natural Population Analysis:

                                     Natural Population
             Natural    ---------------------------------------------
  Atom No    Charge        Core      Valence    Rydberg      Total
 --------------------------------------------------------------------
    C  1   -0.39185      1.99999     4.37389    0.01797     6.39185
    C  2   -0.65646      1.99999     4.64195    0.01452     6.65646
   Cl  3   -0.11157      9.99999     7.08945    0.02213    17.11157
    H  4    0.23746      0.00000     0.76050    0.00204     0.76254
    H  5    0.23746      0.00000     0.76050    0.00204     0.76254
    H  6    0.22516      0.00000     0.77380    0.00103     0.77484
    H  7    0.22990      0.00000     0.76877    0.00133     0.77010
    H  8    0.22990      0.00000     0.76877    0.00133     0.77010
 ====================================================================
 * Total *  0.00000     13.99997    19.93763    0.06240    34.00000

 Normal termination of Gaussian 16 at Mon Nov 18 16:41:12 2024.
