 Gaussian 16, Revision C.01,
 Gaussian 16:  ES64L-G16RevC.01  3-Jul-2019

 -----------------------------------------------------------------
 #RHF/6-31G* int=nobasistransform Symmetry=None 5D 7F Pop=NBO7Read
 -----------------------------------------------------------------

 ---------
 mol82-NBO
 ---------
 Symbolic Z-matrix:
 Charge =  0 Multiplicity = 1

                          Input orientation:
 ---------------------------------------------------------------------
 Center     Atomic      Atomic             Coordinates (Angstroms)
 Number     Number       Type             X           Y           Z
 ---------------------------------------------------------------------
      1          6           0        0.605711    1.746550    0.000000
      2          6           0        0.605711    0.404083    0.000000
      3          6           0       -0.605711   -0.404083    0.000000
      4          6           0       -0.605711   -1.746550    0.000000
      5          1           0        1.527617    2.317443    0.000000
      6          1           0       -0.321132    2.313116    0.000000
      7          1           0        1.553503   -0.133640    0.000000
      8          1           0       -1.553503    0.133640    0.000000
      9          1           0        0.321132   -2.313116    0.000000
     10          1           0       -1.527617   -2.317443    0.000000
 ---------------------------------------------------------------------

 SCF Done:  E(RHF) =  -154.917566180     A.U. after   11 cycles

 Alpha  occ. eigenvalues --  -11.23616 -11.23537 -11.22595 -11.22594  -1.08543
 Alpha  occ. eigenvalues --   -0.99318  -0.82214  -0.74972  -0.63861  -0.62916
 Alpha  occ. eigenvalues --   -0.55125  -0.54010  -0.49097  -0.43774  -0.31577
 Alpha virt. eigenvalues --    0.12695   0.25802   0.26061   0.26922   0.27553
 Alpha virt. eigenvalues --    0.32988   0.34826   0.35972   0.49081   0.49512
 Alpha virt. eigenvalues --    0.57678   0.67936   0.70822   0.75698   0.81308

 Mulliken charges:
               1
     1  C   -0.413909
     2  C   -0.142176
     3  C   -0.142176
     4  C   -0.413909
     5  H    0.185319
     6  H    0.180232
     7  H    0.190535
     8  H    0.190535
     9  H    0.180232
    10  H    0.185319
 Sum of Mulliken charges =  -0.00000

 Dipole moment (field-independent basis, Debye):
    X=              0.0000    Y=              0.0000    Z=              0.0000  Tot=              0.0000
 Quadrupole moment (field-independent basis, Debye-Ang):
   XX=            -22.8397   YY=            -22.7492   ZZ=            -28.8563
   XY=             -0.2147   XZ=              0.0000   YZ=             -0.0000

 Summary of Natural Population Analysis:

                                     Natural Population
             Natural    ---------------------------------------------
  Atom No    Charge        Core      Valence    Rydberg      Total
 --------------------------------------------------------------------
    C  1   -0.40605      1.99999     4.38596    0.02009     6.40605
    C  2   -0.23654      1.99999     4.21372    0.02283     6.23654
    C  3   -0.23654      1.99999     4.21372    0.02283     6.23654
    C  4   -0.40605      1.99999     4.38596    0.02009     6.40605
    H  5    0.21524      0.00000     0.78432    0.00044     0.78476
    H  6    0.20583      0.00000     0.79347    0.00070     0.79417
    H  7    0.22152      0.00000     0.77753    0.00095     0.77848
    H  8    0.22152      0.00000     0.77753    0.00095     0.77848
    H  9    0.20583      0.00000     0.79347    0.00070     0.79417
    H 10    0.21524      0.00000     0.78432    0.00044     0.78476
 ====================================================================
 * Total *  0.00000      7.99998    21.90999    0.09003    30.00000

 Normal termination of Gaussian 16 at Mon Nov 18 16:40:42 2024.
