 Gaussian 16, Revision C.01,
 Gaussian 16:  ES64L-G16RevC.01  3-Jul-2019

 -----------------------------------------------------------------
 #RHF/6-31G* int=nobasistransform Symmetry=None 5D 7F Pop=NBO7Read
 -----------------------------------------------------------------

 ---------
 mol31-NBO
 ---------
 Symbolic Z-matrix:
 Charge =  0 Multiplicity = 1

                          Input orientation:
 ---------------------------------------------------------------------
 Center     Atomic      Atomic             Coordinates (Angstroms)
 Number     Number       Type             X           Y           Z
 ---------------------------------------------------------------------
      1          6           0       -0.047131    0.664389    0.000000
      2          8           0       -0.047131   -0.758551    0.000000
      3          1           0       -1.092995    0.969785    0.000000
      4          1           0        0.878534   -1.048458    0.000000
      5          1           0        0.437145    1.080376    0.891772
      6          1           0        0.437145    1.080376   -0.891772
 ---------------------------------------------------------------------

 SCF Done:  E(RHF) =  -115.033007819     A.U. after   11 cycles

 Alpha  occ. eigenvalues --  -20.55528 -11.26852  -1.34821  -0.92193  -0.68389
 Alpha  occ. eigenvalues --   -0.61566  -0.58665  -0.49945  -0.44504
 Alpha virt. eigenvalues --    0.22454   0.27799   0.31951   0.32721   0.38024
 Alpha virt. eigenvalues --    0.76283   0.77707   0.78931   1.04835   1.12258
 Alpha virt. eigenvalues --    1.15986   1.19814   1.23879   1.25537   1.28369

 Mulliken charges:
               1
     1  C   -0.153052
     2  O   -0.762684
     3  H    0.177240
     4  H    0.446300
     5  H    0.146098
     6  H    0.146098
 Sum of Mulliken charges =  -0.00000

 Dipole moment (field-independent basis, Debye):
    X=              1.5592    Y=              1.1543    Z=             -0.0000  Tot=              1.9400
 Quadrupole moment (field-independent basis, Debye-Ang):
   XX=            -11.5268   YY=            -13.1669   ZZ=            -13.6880
   XY=             -2.2193   XZ=             -0.0000   YZ=             -0.0000

 Summary of Natural Population Analysis:

                                     Natural Population
             Natural    ---------------------------------------------
  Atom No    Charge        Core      Valence    Rydberg      Total
 --------------------------------------------------------------------
    C  1   -0.22751      1.99999     4.21047    0.01705     6.22751
    O  2   -0.79724      1.99999     6.78123    0.01601     8.79724
    H  3    0.19876      0.00000     0.80031    0.00093     0.80124
    H  4    0.47869      0.00000     0.51978    0.00153     0.52131
    H  5    0.17365      0.00000     0.82500    0.00135     0.82635
    H  6    0.17365      0.00000     0.82500    0.00135     0.82635
 ====================================================================
 * Total *  0.00000      3.99999    13.96179    0.03823    18.00000

 Normal termination of Gaussian 16 at Mon Nov 18 16:40:08 2024.
