 Gaussian 16, Revision C.01,
 Gaussian 16:  ES64L-G16RevC.01  3-Jul-2019

 -----------------------------------------------------------------
 #RHF/STO-3G int=nobasistransform Symmetry=None 5D 7F Pop=NBO7Read
 -----------------------------------------------------------------

 ----------
 mol110-NBO
 ----------
 Symbolic Z-matrix:
 Charge =  0 Multiplicity = 1

                          Input orientation:
 ---------------------------------------------------------------------
 Center     Atomic      Atomic             Coordinates (Angstroms)
 Number     Number       Type             X           Y           Z
 ---------------------------------------------------------------------
      1          6           0        0.000000    0.731580   -0.375674
      2          8           0        0.000000    0.000000    0.860950
      3          6           0        0.000000   -0.731580   -0.375674
      4          1           0        0.919568    1.268821   -0.594878
      5          1           0       -0.919568    1.268821   -0.594878
      6          1           0       -0.919568   -1.268821   -0.594878
      7          1           0        0.919568   -1.268821   -0.594878
 ---------------------------------------------------------------------

 SCF Done:  E(RHF) =  -150.927728253     A.U. after   10 cycles

 Alpha  occ. eigenvalues --  -20.29034 -11.09475 -11.09474  -1.35063  -0.88467
 Alpha  occ. eigenvalues --   -0.81703  -0.66347  -0.59177  -0.50602  -0.46298
 Alpha  occ. eigenvalues --   -0.38748  -0.36530
 Alpha virt. eigenvalues --    0.45355   0.58148   0.63463   0.66185   0.68579
 Alpha virt. eigenvalues --    0.79461   0.83301

 Mulliken charges:
               1
     1  C   -0.046389
     2  O   -0.210457
     3  C   -0.046389
     4  H    0.075809
     5  H    0.075809
     6  H    0.075809
     7  H    0.075809
 Sum of Mulliken charges =  -0.00000

 Dipole moment (field-independent basis, Debye):
    X=             -0.0000    Y=             -0.0000    Z=             -1.4575  Tot=              1.4575
 Quadrupole moment (field-independent basis, Debye-Ang):
   XX=            -16.2650   YY=            -16.0013   ZZ=            -19.0599
   XY=              0.0000   XZ=              0.0000   YZ=              0.0000

 Summary of Natural Population Analysis:

                                     Natural Population
             Natural    ---------------------------------------------
  Atom No    Charge        Core      Valence    Rydberg      Total
 --------------------------------------------------------------------
    C  1    0.01676      1.99999     3.98324    0.00000     5.98324
    O  2   -0.21090      2.00000     6.21090    0.00000     8.21090
    C  3    0.01676      1.99999     3.98324    0.00000     5.98324
    H  4    0.04434      0.00000     0.95566    0.00000     0.95566
    H  5    0.04434      0.00000     0.95566    0.00000     0.95566
    H  6    0.04434      0.00000     0.95566    0.00000     0.95566
    H  7    0.04434      0.00000     0.95566    0.00000     0.95566
 ====================================================================
 * Total *  0.00000      5.99999    18.00001    0.00000    24.00000

 Normal termination of Gaussian 16 at Mon Nov 18 15:41:26 2024.
