 Gaussian 16, Revision C.01,
 Gaussian 16:  ES64L-G16RevC.01  3-Jul-2019

 -----------------------------------------------------------------
 #RHF/STO-3G int=nobasistransform Symmetry=None 5D 7F Pop=NBO7Read
 -----------------------------------------------------------------

 ----------
 mol122-NBO
 ----------
 Symbolic Z-matrix:
 Charge =  0 Multiplicity = 1

                          Input orientation:
 ---------------------------------------------------------------------
 Center     Atomic      Atomic             Coordinates (Angstroms)
 Number     Number       Type             X           Y           Z
 ---------------------------------------------------------------------
      1          6           0       -0.161594   -1.638625    0.000000
      2          6           0        0.584957   -0.524961    0.000000
      3          6           0        0.000000    0.782253    0.000000
      4          1           0       -1.245203   -1.598169    0.000000
      5          1           0        0.305973   -2.616405    0.000000
      6          1           0        1.669863   -0.572107    0.000000
      7          7           0       -0.467259    1.867811    0.000000
 ---------------------------------------------------------------------

 SCF Done:  E(RHF) =  -167.623848839     A.U. after   12 cycles

 Alpha  occ. eigenvalues --  -15.35162 -11.08871 -11.07543 -11.06341  -1.15438
 Alpha  occ. eigenvalues --   -1.03387  -0.82117  -0.67394  -0.59911  -0.53097
 Alpha  occ. eigenvalues --   -0.46568  -0.46070  -0.39963  -0.32901
 Alpha virt. eigenvalues --    0.21911   0.34373   0.43985   0.56506   0.63306
 Alpha virt. eigenvalues --    0.65825   0.86571   0.94964   1.31393

 Mulliken charges:
               1
     1  C   -0.087359
     2  C   -0.061360
     3  C    0.064865
     4  H    0.087229
     5  H    0.084718
     6  H    0.093514
     7  N   -0.181607
 Sum of Mulliken charges =   0.00000

 Dipole moment (field-independent basis, Debye):
    X=              0.9237    Y=             -3.0706    Z=              0.0000  Tot=              3.2065
 Quadrupole moment (field-independent basis, Debye-Ang):
   XX=            -20.4560   YY=            -25.1747   ZZ=            -22.0759
   XY=              1.7985   XZ=             -0.0000   YZ=              0.0000

 Summary of Natural Population Analysis:

                                     Natural Population
             Natural    ---------------------------------------------
  Atom No    Charge        Core      Valence    Rydberg      Total
 --------------------------------------------------------------------
    C  1   -0.01911      2.00000     4.01912    0.00000     6.01911
    C  2   -0.06837      2.00000     4.06837    0.00000     6.06837
    C  3    0.07812      2.00000     3.92188    0.00000     5.92188
    H  4    0.05578      0.00000     0.94422    0.00000     0.94422
    H  5    0.05338      0.00000     0.94662    0.00000     0.94662
    H  6    0.06826      0.00000     0.93174    0.00000     0.93174
    N  7   -0.16806      2.00000     5.16807    0.00000     7.16806
 ====================================================================
 * Total *  0.00000      7.99999    20.00001    0.00000    28.00000

 Normal termination of Gaussian 16 at Mon Nov 18 15:41:48 2024.
