 Gaussian 16, Revision C.01,
 Gaussian 16:  ES64L-G16RevC.01  3-Jul-2019

 -----------------------------------------------------------------
 #RHF/6-31G* int=nobasistransform Symmetry=None 5D 7F Pop=NBO7Read
 -----------------------------------------------------------------

 ---------
 mol69-NBO
 ---------
 Symbolic Z-matrix:
 Charge =  0 Multiplicity = 1

                          Input orientation:
 ---------------------------------------------------------------------
 Center     Atomic      Atomic             Coordinates (Angstroms)
 Number     Number       Type             X           Y           Z
 ---------------------------------------------------------------------
      1         15           0        0.000000    0.000000    0.506767
      2          9           0        0.000000    1.383861   -0.281537
      3          9           0        1.198459   -0.691931   -0.281537
      4          9           0       -1.198459   -0.691931   -0.281537
 ---------------------------------------------------------------------

 SCF Done:  E(RHF) =  -639.121867018     A.U. after   10 cycles

 Alpha  occ. eigenvalues --  -80.14366 -26.33450 -26.33449 -26.33449  -7.66933
 Alpha  occ. eigenvalues --   -5.56289  -5.56289  -5.55946  -1.67339  -1.62230
 Alpha  occ. eigenvalues --   -1.62230  -0.91040  -0.77477  -0.77477  -0.75150
 Alpha  occ. eigenvalues --   -0.70836  -0.70836  -0.66568  -0.66568  -0.65466
 Alpha  occ. eigenvalues --   -0.46586
 Alpha virt. eigenvalues --    0.14153   0.14153   0.27865   0.37227   0.49128
 Alpha virt. eigenvalues --    0.49129   0.49254   0.83085   0.83085   0.85359
 Alpha virt. eigenvalues --    1.15943   1.15943   1.46834   1.46834   1.48539

 Mulliken charges:
               1
     1  P    1.453551
     2  F   -0.484517
     3  F   -0.484517
     4  F   -0.484517
 Sum of Mulliken charges =  -0.00000

 Dipole moment (field-independent basis, Debye):
    X=             -0.0000    Y=              0.0000    Z=              1.5598  Tot=              1.5598
 Quadrupole moment (field-independent basis, Debye-Ang):
   XX=            -27.9817   YY=            -27.9817   ZZ=            -26.4409
   XY=              0.0000   XZ=              0.0000   YZ=             -0.0000

 Summary of Natural Population Analysis:

                                     Natural Population
             Natural    ---------------------------------------------
  Atom No    Charge        Core      Valence    Rydberg      Total
 --------------------------------------------------------------------
    P  1    1.92198      9.99996     2.98761    0.09044    13.07802
    F  2   -0.64066      2.00000     7.62669    0.01398     9.64066
    F  3   -0.64066      2.00000     7.62669    0.01398     9.64066
    F  4   -0.64066      2.00000     7.62669    0.01398     9.64066
 ====================================================================
 * Total *  0.00000     15.99995    25.86767    0.13238    42.00000

 Normal termination of Gaussian 16 at Mon Nov 18 16:40:43 2024.
