 Gaussian 16, Revision C.01,
 Gaussian 16:  ES64L-G16RevC.01  3-Jul-2019

 ------------------------
 #RHF/6-31G* Pop=NBO7Read
 ------------------------

 -----
 NBO-a
 -----
 Symbolic Z-matrix:
 Charge =  0 Multiplicity = 1

                         Standard orientation:
 ---------------------------------------------------------------------
 Center     Atomic      Atomic             Coordinates (Angstroms)
 Number     Number       Type             X           Y           Z
 ---------------------------------------------------------------------
      1          6           0        0.362429    0.627747    0.256279
      2          1           0        0.374371    0.648435    1.342061
      3          1           0        1.390097    0.648435   -0.094385
      4          1           0       -0.133486    1.528077   -0.094389
      5          6           0       -0.362429   -0.627747   -0.256279
      6          1           0       -1.390097   -0.648435    0.094385
      7          1           0       -0.374371   -0.648435   -1.342061
      8          1           0        0.133486   -1.528077    0.094389
 ---------------------------------------------------------------------

 SCF Done:  E(RHF) =  -79.2286533600     A.U. after    9 cycles

 The electronic state is 1-AG.
 Alpha  occ. eigenvalues --  -11.21089 -11.21033  -1.01664  -0.84286  -0.59790
 Alpha  occ. eigenvalues --   -0.59790  -0.50413  -0.48939  -0.48939
 Alpha virt. eigenvalues --    0.24235   0.30311   0.31895   0.31895   0.33795
 Alpha virt. eigenvalues --    0.33795   0.40862   0.70977   0.73931   0.73931
 Alpha virt. eigenvalues --    0.84517   0.84517   0.93695   1.16164   1.16164

 Mulliken charges:
               1
     1  C   -0.475563
     2  H    0.158521
     3  H    0.158521
     4  H    0.158521
     5  C   -0.475563
     6  H    0.158521
     7  H    0.158521
     8  H    0.158521
 Sum of Mulliken charges =   0.00000

 Dipole moment (field-independent basis, Debye):
    X=              0.0000    Y=              0.0000    Z=             -0.0000  Tot=              0.0000
 Quadrupole moment (field-independent basis, Debye-Ang):
   XX=            -15.0551   YY=            -15.3724   ZZ=            -14.9758
   XY=             -0.2747   XZ=             -0.1122   YZ=             -0.1943

 Summary of Natural Population Analysis:

                                     Natural Population
             Natural    ---------------------------------------------
  Atom No    Charge        Core      Valence    Rydberg      Total
 --------------------------------------------------------------------
    C  1   -0.63961      2.00000     4.62854    0.01108     6.63961
    H  2    0.21321      0.00000     0.78594    0.00086     0.78679
    H  3    0.21320      0.00000     0.78594    0.00086     0.78680
    H  4    0.21320      0.00000     0.78594    0.00086     0.78680
    C  5   -0.63961      2.00000     4.62854    0.01108     6.63961
    H  6    0.21320      0.00000     0.78594    0.00086     0.78680
    H  7    0.21321      0.00000     0.78594    0.00086     0.78679
    H  8    0.21320      0.00000     0.78594    0.00086     0.78680
 ====================================================================
 * Total *  0.00000      3.99999    13.97269    0.02732    18.00000

 Normal termination of Gaussian 16 at Wed Jul 24 12:08:02 2024.
