 Gaussian 16, Revision C.01,
 Gaussian 16:  ES64L-G16RevC.01  3-Jul-2019

 -----------------------------------------------------------------
 #RHF/STO-3G int=nobasistransform Symmetry=None 5D 7F Pop=NBO7Read
 -----------------------------------------------------------------

 ----------
 mol129-NBO
 ----------
 Symbolic Z-matrix:
 Charge =  0 Multiplicity = 1

                          Input orientation:
 ---------------------------------------------------------------------
 Center     Atomic      Atomic             Coordinates (Angstroms)
 Number     Number       Type             X           Y           Z
 ---------------------------------------------------------------------
      1          8           0        0.006429   -0.712741    0.000000
      2          6           0        0.000000    0.705845    0.000000
      3          6           0        1.324518   -1.226029    0.000000
      4          6           0       -1.442169    1.160325    0.000000
      5          1           0        0.530962    1.086484    0.886881
      6          1           0        0.530962    1.086484   -0.886881
      7          1           0        1.241648   -2.313325    0.000000
      8          1           0        1.881329   -0.905925   -0.891710
      9          1           0        1.881329   -0.905925    0.891710
     10          1           0       -1.954863    0.780605   -0.885855
     11          1           0       -1.954863    0.780605    0.885855
     12          1           0       -1.502025    2.252083    0.000000
 ---------------------------------------------------------------------

 SCF Done:  E(RHF) =  -190.715756541     A.U. after   10 cycles

 Alpha  occ. eigenvalues --  -20.25919 -11.09143 -11.08605 -11.04034  -1.30115
 Alpha  occ. eigenvalues --   -0.98130  -0.86953  -0.78993  -0.62413  -0.59281
 Alpha  occ. eigenvalues --   -0.57379  -0.54956  -0.49944  -0.46845  -0.45469
 Alpha  occ. eigenvalues --   -0.38563  -0.33076
 Alpha virt. eigenvalues --    0.55031   0.63545   0.65994   0.67975   0.69744
 Alpha virt. eigenvalues --    0.70202   0.71026   0.73951   0.76922   0.77903
 Alpha virt. eigenvalues --    0.80482

 Mulliken charges:
               1
     1  O   -0.254855
     2  C    0.023051
     3  C   -0.058195
     4  C   -0.177989
     5  H    0.047199
     6  H    0.047199
     7  H    0.070672
     8  H    0.053490
     9  H    0.053490
    10  H    0.067224
    11  H    0.067224
    12  H    0.061488
 Sum of Mulliken charges =  -0.00000

 Dipole moment (field-independent basis, Debye):
    X=              0.9200    Y=              0.7734    Z=              0.0000  Tot=              1.2019
 Quadrupole moment (field-independent basis, Debye-Ang):
   XX=            -24.0341   YY=            -24.4869   ZZ=            -24.7072
   XY=             -1.1928   XZ=              0.0000   YZ=             -0.0000

 Summary of Natural Population Analysis:

                                     Natural Population
             Natural    ---------------------------------------------
  Atom No    Charge        Core      Valence    Rydberg      Total
 --------------------------------------------------------------------
    O  1   -0.25573      2.00000     6.25573    0.00000     8.25573
    C  2    0.10235      1.99999     3.89766    0.00000     5.89765
    C  3    0.02411      1.99999     3.97591    0.00000     5.97589
    C  4   -0.14896      2.00000     4.14896    0.00000     6.14896
    H  5    0.01681      0.00000     0.98319    0.00000     0.98319
    H  6    0.01681      0.00000     0.98319    0.00000     0.98319
    H  7    0.04227      0.00000     0.95773    0.00000     0.95773
    H  8    0.02609      0.00000     0.97391    0.00000     0.97391
    H  9    0.02609      0.00000     0.97391    0.00000     0.97391
    H 10    0.05145      0.00000     0.94855    0.00000     0.94855
    H 11    0.05145      0.00000     0.94855    0.00000     0.94855
    H 12    0.04727      0.00000     0.95273    0.00000     0.95273
 ====================================================================
 * Total *  0.00000      7.99997    26.00003    0.00000    34.00000

 Normal termination of Gaussian 16 at Mon Nov 18 15:41:49 2024.
