 Gaussian 16, Revision C.01,
 Gaussian 16:  ES64L-G16RevC.01  3-Jul-2019

 -----------------------------------------------------------------
 #RHF/6-31G* int=nobasistransform Symmetry=None 5D 7F Pop=NBO7Read
 -----------------------------------------------------------------

 ----------
 mol125-NBO
 ----------
 Symbolic Z-matrix:
 Charge =  0 Multiplicity = 1

                          Input orientation:
 ---------------------------------------------------------------------
 Center     Atomic      Atomic             Coordinates (Angstroms)
 Number     Number       Type             X           Y           Z
 ---------------------------------------------------------------------
      1          6           0        0.000000    0.186396    0.000000
      2          8           0        0.126651    1.377199    0.000000
      3          9           0       -1.243950   -0.382745    0.000000
      4          6           0        1.049454   -0.876224    0.000000
      5          1           0        2.035883   -0.417099    0.000000
      6          1           0        0.924869   -1.508407    0.881549
      7          1           0        0.924869   -1.508407   -0.881549
 ---------------------------------------------------------------------

 SCF Done:  E(RHF) =  -251.793169623     A.U. after   13 cycles

 Alpha  occ. eigenvalues --  -26.32187 -20.58940 -11.43321 -11.26383  -1.63975
 Alpha  occ. eigenvalues --   -1.42078  -1.05041  -0.83807  -0.72554  -0.71233
 Alpha  occ. eigenvalues --   -0.71222  -0.61559  -0.60766  -0.58603  -0.52264
 Alpha  occ. eigenvalues --   -0.48530
 Alpha virt. eigenvalues --    0.15619   0.23276   0.28246   0.30527   0.35662
 Alpha virt. eigenvalues --    0.43078   0.48043   0.71052   0.72928   0.79590
 Alpha virt. eigenvalues --    0.80480   0.80604   0.91959   0.97938   1.10011

 Mulliken charges:
               1
     1  C    0.868510
     2  O   -0.504364
     3  F   -0.423640
     4  C   -0.610268
     5  H    0.224523
     6  H    0.222619
     7  H    0.222619
 Sum of Mulliken charges =  -0.00000

 Dipole moment (field-independent basis, Debye):
    X=              1.7927    Y=             -2.7229    Z=              0.0000  Tot=              3.2601
 Quadrupole moment (field-independent basis, Debye-Ang):
   XX=            -22.8835   YY=            -25.3688   ZZ=            -21.0593
   XY=             -1.6034   XZ=              0.0000   YZ=             -0.0000

 Summary of Natural Population Analysis:

                                     Natural Population
             Natural    ---------------------------------------------
  Atom No    Charge        Core      Valence    Rydberg      Total
 --------------------------------------------------------------------
    C  1    1.09077      1.99999     2.85677    0.05246     4.90923
    O  2   -0.64352      1.99999     6.62008    0.02345     8.64352
    F  3   -0.43949      1.99999     7.42988    0.00961     9.43949
    C  4   -0.77545      1.99999     4.76286    0.01259     6.77545
    H  5    0.25434      0.00000     0.74477    0.00089     0.74566
    H  6    0.25667      0.00000     0.74245    0.00089     0.74333
    H  7    0.25667      0.00000     0.74245    0.00089     0.74333
 ====================================================================
 * Total *  0.00000      7.99997    23.89925    0.10078    32.00000

 Normal termination of Gaussian 16 at Mon Nov 18 16:41:12 2024.
