 Gaussian 16, Revision C.01,
 Gaussian 16:  ES64L-G16RevC.01  3-Jul-2019

 -----------------------------------------------------------------
 #RHF/6-31G* int=nobasistransform Symmetry=None 5D 7F Pop=NBO7Read
 -----------------------------------------------------------------

 ---------
 mol53-NBO
 ---------
 Symbolic Z-matrix:
 Charge =  0 Multiplicity = 1

                          Input orientation:
 ---------------------------------------------------------------------
 Center     Atomic      Atomic             Coordinates (Angstroms)
 Number     Number       Type             X           Y           Z
 ---------------------------------------------------------------------
      1          8           0        0.036702    1.113517    0.000000
      2          1           0       -0.917548    1.328879    0.000000
      3         17           0        0.036702   -0.602177    0.000000
 ---------------------------------------------------------------------

 SCF Done:  E(RHF) =  -534.837600520     A.U. after   13 cycles

 Alpha  occ. eigenvalues -- -104.87303 -20.64876 -10.60595  -8.07508  -8.07040
 Alpha  occ. eigenvalues --   -8.07017  -1.40088  -1.06045  -0.71129  -0.60522
 Alpha  occ. eigenvalues --   -0.59277  -0.46796  -0.44434
 Alpha virt. eigenvalues --    0.10140   0.23169   0.54664   0.59981   0.62279
 Alpha virt. eigenvalues --    0.62682   0.94443   1.00106   1.07373   1.11969
 Alpha virt. eigenvalues --    1.11975   1.25620   1.25816   1.29671   1.40508

 Mulliken charges:
               1
     1  O   -0.701339
     2  H    0.493599
     3  Cl   0.207740
 Sum of Mulliken charges =  -0.00000

 Dipole moment (field-independent basis, Debye):
    X=             -1.8531    Y=              0.1527    Z=              0.0000  Tot=              1.8593
 Quadrupole moment (field-independent basis, Debye-Ang):
   XX=            -16.8009   YY=            -16.4939   ZZ=            -19.1623
   XY=             -2.8069   XZ=             -0.0000   YZ=              0.0000

 Summary of Natural Population Analysis:

                                     Natural Population
             Natural    ---------------------------------------------
  Atom No    Charge        Core      Valence    Rydberg      Total
 --------------------------------------------------------------------
    O  1   -0.71156      1.99999     6.69442    0.01715     8.71156
    H  2    0.51146      0.00000     0.48706    0.00148     0.48854
   Cl  3    0.20010      9.99999     6.77415    0.02576    16.79990
 ====================================================================
 * Total *  0.00000     11.99998    13.95563    0.04439    26.00000

 Normal termination of Gaussian 16 at Mon Nov 18 16:40:07 2024.
