 Gaussian 16, Revision C.01,
 Gaussian 16:  ES64L-G16RevC.01  3-Jul-2019

 -----------------------------------------------------------------
 #RHF/6-31G* int=nobasistransform Symmetry=None 5D 7F Pop=NBO7Read
 -----------------------------------------------------------------

 ---------
 mol43-NBO
 ---------
 Symbolic Z-matrix:
 Charge =  0 Multiplicity = 1

                          Input orientation:
 ---------------------------------------------------------------------
 Center     Atomic      Atomic             Coordinates (Angstroms)
 Number     Number       Type             X           Y           Z
 ---------------------------------------------------------------------
      1         17           0        0.000000    0.000000    1.007541
      2         17           0        0.000000    0.000000   -1.007541
 ---------------------------------------------------------------------

 SCF Done:  E(RHF) =  -918.909091581     A.U. after    9 cycles

 Alpha  occ. eigenvalues -- -104.88085-104.88083 -10.61852 -10.61840  -8.08760
 Alpha  occ. eigenvalues --   -8.08746  -8.08220  -8.08220  -8.08220  -8.08220
 Alpha  occ. eigenvalues --   -1.21990  -1.02169  -0.59349  -0.56870  -0.56870
 Alpha  occ. eigenvalues --   -0.45092  -0.45092
 Alpha virt. eigenvalues --    0.02480   0.50027   0.56347   0.58791   0.59090
 Alpha virt. eigenvalues --    0.59090   0.64189   0.64189   0.72140   0.97066
 Alpha virt. eigenvalues --    0.97066   1.03971   1.08825   1.08825   1.11890

 Mulliken charges:
               1
     1  Cl  -0.000000
     2  Cl  -0.000000
 Sum of Mulliken charges =  -0.00000

 Dipole moment (field-independent basis, Debye):
    X=             -0.0000    Y=              0.0000    Z=              0.0000  Tot=              0.0000
 Quadrupole moment (field-independent basis, Debye-Ang):
   XX=            -25.6227   YY=            -25.6227   ZZ=            -22.8152
   XY=             -0.0000   XZ=              0.0000   YZ=              0.0000

 Summary of Natural Population Analysis:

                                     Natural Population
             Natural    ---------------------------------------------
  Atom No    Charge        Core      Valence    Rydberg      Total
 --------------------------------------------------------------------
   Cl  1    0.00000      9.99999     6.97768    0.02233    17.00000
   Cl  2    0.00000      9.99999     6.97768    0.02233    17.00000
 ====================================================================
 * Total *  0.00000     19.99998    13.95537    0.04465    34.00000

 Normal termination of Gaussian 16 at Mon Nov 18 16:40:07 2024.
