 Gaussian 16, Revision C.01,
 Gaussian 16:  ES64L-G16RevC.01  3-Jul-2019

 -----------------------------------------------------------------
 #RHF/6-31G* int=nobasistransform Symmetry=None 5D 7F Pop=NBO7Read
 -----------------------------------------------------------------

 ---------
 mol12-NBO
 ---------
 Symbolic Z-matrix:
 Charge =  0 Multiplicity = 1

                          Input orientation:
 ---------------------------------------------------------------------
 Center     Atomic      Atomic             Coordinates (Angstroms)
 Number     Number       Type             X           Y           Z
 ---------------------------------------------------------------------
      1          9           0        0.000000    0.000000    0.093389
      2          1           0        0.000000    0.000000   -0.840502
 ---------------------------------------------------------------------

 SCF Done:  E(RHF) =  -100.000221016     A.U. after    8 cycles

 Alpha  occ. eigenvalues --  -26.27348  -1.57375  -0.73872  -0.62678  -0.62678
 Alpha virt. eigenvalues --    0.21532   1.08042   1.49173   1.49173   1.57225
 Alpha virt. eigenvalues --    1.96031   2.09035   2.09035   2.15692   2.15692
 Alpha virt. eigenvalues --    2.95452

 Mulliken charges:
               1
     1  F   -0.542950
     2  H    0.542950
 Sum of Mulliken charges =   0.00000

 Dipole moment (field-independent basis, Debye):
    X=              0.0000    Y=              0.0000    Z=             -2.0146  Tot=              2.0146
 Quadrupole moment (field-independent basis, Debye-Ang):
   XX=             -5.4238   YY=             -5.4238   ZZ=             -3.2619
   XY=              0.0000   XZ=              0.0000   YZ=             -0.0000

 Summary of Natural Population Analysis:

                                     Natural Population
             Natural    ---------------------------------------------
  Atom No    Charge        Core      Valence    Rydberg      Total
 --------------------------------------------------------------------
    F  1   -0.56101      2.00000     7.55311    0.00790     9.56101
    H  2    0.56101      0.00000     0.43825    0.00074     0.43899
 ====================================================================
 * Total *  0.00000      2.00000     7.99136    0.00864    10.00000

 Normal termination of Gaussian 16 at Mon Nov 18 16:40:07 2024.
