 Gaussian 16, Revision C.01,
 Gaussian 16:  ES64L-G16RevC.01  3-Jul-2019

 ----------------------------------------------------
 #OPT=VeryTight Int=UltraFine RHF/STO-3G Pop=NBO7Read
 ----------------------------------------------------

 ---------
 NBO-CH3OH
 ---------
 Symbolic Z-matrix:
 Charge =  0 Multiplicity = 1

 SCF Done:  E(RHF) =  -113.534209785     A.U. after   10 cycles
 SCF Done:  E(RHF) =  -113.548600518     A.U. after   10 cycles
 SCF Done:  E(RHF) =  -113.549168625     A.U. after    9 cycles
 SCF Done:  E(RHF) =  -113.549192774     A.U. after    8 cycles
 SCF Done:  E(RHF) =  -113.549193270     A.U. after    7 cycles
 SCF Done:  E(RHF) =  -113.549193286     A.U. after    6 cycles
 SCF Done:  E(RHF) =  -113.549193287     A.U. after    5 cycles
 SCF Done:  E(RHF) =  -113.549193287     A.U. after    4 cycles
 Optimization completed.
    -- Stationary point found.

                         Standard orientation:
 ---------------------------------------------------------------------
 Center     Atomic      Atomic             Coordinates (Angstroms)
 Number     Number       Type             X           Y           Z
 ---------------------------------------------------------------------
      1          6           0       -0.666681   -0.016873    0.000000
      2          8           0        0.759100    0.126815    0.000000
      3          1           0       -1.099949    0.984911   -0.000000
      4          1           0       -1.032251   -0.545686    0.886498
      5          1           0       -1.032251   -0.545686   -0.886498
      6          1           0        1.091740   -0.806816    0.000000
 ---------------------------------------------------------------------

 The electronic state is 1-A.
 Alpha  occ. eigenvalues --  -20.26334 -11.08581  -1.27852  -0.87695  -0.61094
 Alpha  occ. eigenvalues --   -0.57129  -0.51707  -0.41873  -0.35945
 Alpha virt. eigenvalues --    0.57290   0.65062   0.69694   0.72319   0.73438

 Mulliken charges:
               1
     1  C   -0.071475
     2  O   -0.280116
     3  H    0.069613
     4  H    0.053992
     5  H    0.053992
     6  H    0.173995
 Sum of Mulliken charges =  -0.00000

 Dipole moment (field-independent basis, Debye):
    X=             -0.7379    Y=             -1.3168    Z=             -0.0000  Tot=              1.5094
 Quadrupole moment (field-independent basis, Debye-Ang):
   XX=            -12.2281   YY=            -11.3340   ZZ=            -12.3764
   XY=             -1.5501   XZ=              0.0000   YZ=             -0.0000

 Summary of Natural Population Analysis:

                                     Natural Population
             Natural    ---------------------------------------------
  Atom No    Charge        Core      Valence    Rydberg      Total
 --------------------------------------------------------------------
    C  1    0.01567      1.99998     3.98435    0.00000     5.98433
    O  2   -0.29810      2.00000     6.29810    0.00000     8.29810
    H  3    0.04106      0.00000     0.95894    0.00000     0.95894
    H  4    0.02589      0.00000     0.97411    0.00000     0.97411
    H  5    0.02589      0.00000     0.97411    0.00000     0.97411
    H  6    0.18961      0.00000     0.81039    0.00000     0.81039
 ====================================================================
 * Total *  0.00000      3.99998    14.00002    0.00000    18.00000

 Normal termination of Gaussian 16 at Wed Jul 24 11:04:54 2024.
