 Gaussian 16, Revision C.01,
 Gaussian 16:  ES64L-G16RevC.01  3-Jul-2019

 -----------------------------------------------------------------
 #RHF/6-31G* int=nobasistransform Symmetry=None 5D 7F Pop=NBO7Read
 -----------------------------------------------------------------

 ----------
 mol133-NBO
 ----------
 Symbolic Z-matrix:
 Charge =  0 Multiplicity = 1

                          Input orientation:
 ---------------------------------------------------------------------
 Center     Atomic      Atomic             Coordinates (Angstroms)
 Number     Number       Type             X           Y           Z
 ---------------------------------------------------------------------
      1          1           0        0.000000    0.000000    2.129296
      2          7           0        0.000000    0.000000    1.118684
      3          6           0        0.000000    1.124516    0.333565
      4          6           0        0.000000   -1.124516    0.333565
      5          6           0        0.000000    0.708407   -0.983807
      6          6           0        0.000000   -0.708407   -0.983807
      7          1           0        0.000000    2.112872    0.770496
      8          1           0        0.000000   -2.112872    0.770496
      9          1           0        0.000000    1.357252   -1.849085
     10          1           0        0.000000   -1.357252   -1.849085
 ---------------------------------------------------------------------

 SCF Done:  E(RHF) =  -208.805125447     A.U. after   12 cycles

 Alpha  occ. eigenvalues --  -15.60269 -11.24530 -11.24526 -11.20178 -11.20076
 Alpha  occ. eigenvalues --   -1.28232  -1.03240  -0.96778  -0.78506  -0.75803
 Alpha  occ. eigenvalues --   -0.72786  -0.58342  -0.57590  -0.55752  -0.53744
 Alpha  occ. eigenvalues --   -0.52018  -0.33708  -0.28741
 Alpha virt. eigenvalues --    0.20124   0.22422   0.26117   0.28904   0.31031
 Alpha virt. eigenvalues --    0.32033   0.32980   0.41500   0.42064   0.50266
 Alpha virt. eigenvalues --    0.54011   0.67410   0.74279   0.78701   0.81701

 Mulliken charges:
               1
     1  H    0.396112
     2  N   -0.725902
     3  C    0.027358
     4  C    0.027358
     5  C   -0.265548
     6  C   -0.265548
     7  H    0.208425
     8  H    0.208425
     9  H    0.194659
    10  H    0.194659
 Sum of Mulliken charges =  -0.00000

 Dipole moment (field-independent basis, Debye):
    X=              0.0000    Y=              0.0000    Z=              1.9241  Tot=              1.9241
 Quadrupole moment (field-independent basis, Debye-Ang):
   XX=            -33.9322   YY=            -26.1103   ZZ=            -23.2664
   XY=             -0.0000   XZ=             -0.0000   YZ=             -0.0000

 Summary of Natural Population Analysis:

                                     Natural Population
             Natural    ---------------------------------------------
  Atom No    Charge        Core      Valence    Rydberg      Total
 --------------------------------------------------------------------
    H  1    0.43527      0.00000     0.56347    0.00126     0.56473
    N  2   -0.61799      1.99999     5.60178    0.01621     7.61799
    C  3   -0.03706      1.99999     4.00932    0.02774     6.03706
    C  4   -0.03706      1.99999     4.00932    0.02774     6.03706
    C  5   -0.32859      1.99999     4.30845    0.02015     6.32859
    C  6   -0.32859      1.99999     4.30845    0.02015     6.32859
    H  7    0.22368      0.00000     0.77604    0.00028     0.77632
    H  8    0.22368      0.00000     0.77604    0.00028     0.77632
    H  9    0.23333      0.00000     0.76647    0.00021     0.76667
    H 10    0.23333      0.00000     0.76647    0.00021     0.76667
 ====================================================================
 * Total *  0.00000      9.99997    25.88581    0.11422    36.00000

 Normal termination of Gaussian 16 at Mon Nov 18 16:41:12 2024.
