 Gaussian 16, Revision C.01,
 Gaussian 16:  ES64L-G16RevC.01  3-Jul-2019

 -----------------------------------------------------------------
 #RHF/STO-3G int=nobasistransform Symmetry=None 5D 7F Pop=NBO7Read
 -----------------------------------------------------------------

 ----------
 mol121-NBO
 ----------
 Symbolic Z-matrix:
 Charge =  0 Multiplicity = 1

                          Input orientation:
 ---------------------------------------------------------------------
 Center     Atomic      Atomic             Coordinates (Angstroms)
 Number     Number       Type             X           Y           Z
 ---------------------------------------------------------------------
      1          6           0        0.000000    0.756016    0.000000
      2          6           0        1.303223    1.028507    0.000000
      3         17           0       -0.631555   -0.854980    0.000000
      4          1           0       -0.771098    1.516963    0.000000
      5          1           0        2.056095    0.249427    0.000000
      6          1           0        1.632096    2.061125    0.000000
 ---------------------------------------------------------------------

 SCF Done:  E(RHF) =  -531.076372532     A.U. after   10 cycles

 Alpha  occ. eigenvalues -- -103.70862 -11.10474 -11.05898 -10.39005  -7.83432
 Alpha  occ. eigenvalues --   -7.82864  -7.82852  -1.09265  -0.95515  -0.74873
 Alpha  occ. eigenvalues --   -0.62298  -0.56708  -0.47601  -0.46103  -0.39509
 Alpha  occ. eigenvalues --   -0.32452
 Alpha virt. eigenvalues --    0.28115   0.38941   0.61161   0.66274   0.86642
 Alpha virt. eigenvalues --    0.94497

 Mulliken charges:
               1
     1  C   -0.024323
     2  C   -0.113294
     3  Cl  -0.133985
     4  H    0.099062
     5  H    0.088166
     6  H    0.084374
 Sum of Mulliken charges =   0.00000

 Dipole moment (field-independent basis, Debye):
    X=              0.9414    Y=              1.8644    Z=             -0.0000  Tot=              2.0886
 Quadrupole moment (field-independent basis, Debye-Ang):
   XX=            -22.4008   YY=            -22.6505   ZZ=            -24.2594
   XY=             -0.5513   XZ=             -0.0000   YZ=              0.0000

 Summary of Natural Population Analysis:

                                     Natural Population
             Natural    ---------------------------------------------
  Atom No    Charge        Core      Valence    Rydberg      Total
 --------------------------------------------------------------------
    C  1    0.06767      2.00000     3.93234    0.00000     5.93233
    C  2   -0.08569      2.00000     4.08569    0.00000     6.08569
   Cl  3   -0.15868     10.00000     7.15868    0.00000    17.15868
    H  4    0.05829      0.00000     0.94171    0.00000     0.94171
    H  5    0.06065      0.00000     0.93935    0.00000     0.93935
    H  6    0.05775      0.00000     0.94225    0.00000     0.94225
 ====================================================================
 * Total *  0.00000     13.99999    18.00001    0.00000    32.00000

 Normal termination of Gaussian 16 at Mon Nov 18 15:41:47 2024.
