 Gaussian 16, Revision C.01,
 Gaussian 16:  ES64L-G16RevC.01  3-Jul-2019

 -----------------------------------------------------------------
 #RHF/6-31G* int=nobasistransform Symmetry=None 5D 7F Pop=NBO7Read
 -----------------------------------------------------------------

 ---------
 mol30-NBO
 ---------
 Symbolic Z-matrix:
 Charge =  0 Multiplicity = 1

                          Input orientation:
 ---------------------------------------------------------------------
 Center     Atomic      Atomic             Coordinates (Angstroms)
 Number     Number       Type             X           Y           Z
 ---------------------------------------------------------------------
      1          8           0        0.000000    0.000000    0.683501
      2          6           0        0.000000    0.000000   -0.536614
      3          1           0        0.000000    0.934390   -1.124164
      4          1           0        0.000000   -0.934390   -1.124164
 ---------------------------------------------------------------------

 SCF Done:  E(RHF) =  -113.863060456     A.U. after   11 cycles

 Alpha  occ. eigenvalues --  -20.58321 -11.34293  -1.39389  -0.87059  -0.68682
 Alpha  occ. eigenvalues --   -0.64323  -0.52521  -0.43930
 Alpha virt. eigenvalues --    0.13440   0.24367   0.33182   0.37529   0.73519
 Alpha virt. eigenvalues --    0.83256   0.83648   0.94886   1.07974   1.11915
 Alpha virt. eigenvalues --    1.17128   1.26962   1.33275   1.78381   1.79173

 Mulliken charges:
               1
     1  O   -0.454042
     2  C    0.147937
     3  H    0.153052
     4  H    0.153052
 Sum of Mulliken charges =   0.00000

 Dipole moment (field-independent basis, Debye):
    X=              0.0000    Y=             -0.0000    Z=             -2.8330  Tot=              2.8330
 Quadrupole moment (field-independent basis, Debye-Ang):
   XX=            -11.5794   YY=            -11.4733   ZZ=            -11.8482
   XY=             -0.0000   XZ=             -0.0000   YZ=              0.0000

 Summary of Natural Population Analysis:

                                     Natural Population
             Natural    ---------------------------------------------
  Atom No    Charge        Core      Valence    Rydberg      Total
 --------------------------------------------------------------------
    O  1   -0.58927      1.99999     6.56672    0.02256     8.58927
    C  2    0.31899      1.99999     3.64532    0.03569     5.68101
    H  3    0.13514      0.00000     0.86255    0.00231     0.86486
    H  4    0.13514      0.00000     0.86255    0.00231     0.86486
 ====================================================================
 * Total *  0.00000      3.99999    11.93715    0.06287    16.00000

 Normal termination of Gaussian 16 at Mon Nov 18 16:40:07 2024.
