 Gaussian 16, Revision C.01,
 Gaussian 16:  ES64L-G16RevC.01  3-Jul-2019

 -----------------------------------------------------------------
 #RHF/STO-3G int=nobasistransform Symmetry=None 5D 7F Pop=NBO7Read
 -----------------------------------------------------------------

 ---------
 mol85-NBO
 ---------
 Symbolic Z-matrix:
 Charge =  0 Multiplicity = 1

                          Input orientation:
 ---------------------------------------------------------------------
 Center     Atomic      Atomic             Coordinates (Angstroms)
 Number     Number       Type             X           Y           Z
 ---------------------------------------------------------------------
      1          6           0        0.000000    1.131343    0.310424
      2          6           0        0.000000   -1.131343    0.310424
      3          6           0        0.747952    0.000000   -0.311812
      4          6           0       -0.747952    0.000000   -0.311812
      5          1           0        0.000000    1.237033    1.397617
      6          1           0        0.000000    2.077375   -0.227668
      7          1           0        0.000000   -1.237033    1.397617
      8          1           0        0.000000   -2.077375   -0.227668
      9          1           0        1.414410    0.000000   -1.161626
     10          1           0       -1.414410    0.000000   -1.161626
 ---------------------------------------------------------------------

 SCF Done:  E(RHF) =  -152.998619766     A.U. after    9 cycles

 Alpha  occ. eigenvalues --  -11.05876 -11.05863 -11.03208 -11.03183  -1.17228
 Alpha  occ. eigenvalues --   -0.88950  -0.74891  -0.74454  -0.65734  -0.55406
 Alpha  occ. eigenvalues --   -0.54386  -0.47530  -0.42422  -0.39908  -0.30233
 Alpha virt. eigenvalues --    0.40276   0.58539   0.59388   0.66117   0.67519
 Alpha virt. eigenvalues --    0.68814   0.72551   0.73061   0.84527   0.87787
 Alpha virt. eigenvalues --    0.91999

 Mulliken charges:
               1
     1  C   -0.100389
     2  C   -0.100389
     3  C   -0.107100
     4  C   -0.107100
     5  H    0.061380
     6  H    0.069539
     7  H    0.061380
     8  H    0.069539
     9  H    0.076570
    10  H    0.076570
 Sum of Mulliken charges =  -0.00000

 Dipole moment (field-independent basis, Debye):
    X=             -0.0000    Y=              0.0000    Z=             -0.6754  Tot=              0.6754
 Quadrupole moment (field-independent basis, Debye-Ang):
   XX=            -25.3055   YY=            -23.2080   ZZ=            -22.7290
   XY=              0.0000   XZ=             -0.0000   YZ=             -0.0000

 Summary of Natural Population Analysis:

                                     Natural Population
             Natural    ---------------------------------------------
  Atom No    Charge        Core      Valence    Rydberg      Total
 --------------------------------------------------------------------
    C  1   -0.06394      2.00000     4.06394    0.00000     6.06394
    C  2   -0.06394      2.00000     4.06394    0.00000     6.06394
    C  3   -0.07441      1.99998     4.07443    0.00000     6.07441
    C  4   -0.07441      1.99998     4.07443    0.00000     6.07441
    H  5    0.03815      0.00000     0.96185    0.00000     0.96185
    H  6    0.04757      0.00000     0.95243    0.00000     0.95243
    H  7    0.03815      0.00000     0.96185    0.00000     0.96185
    H  8    0.04757      0.00000     0.95243    0.00000     0.95243
    H  9    0.05262      0.00000     0.94738    0.00000     0.94738
    H 10    0.05262      0.00000     0.94738    0.00000     0.94738
 ====================================================================
 * Total *  0.00000      7.99996    22.00004    0.00000    30.00000

 Normal termination of Gaussian 16 at Mon Nov 18 15:41:34 2024.
