 Gaussian 16, Revision C.01,
 Gaussian 16:  ES64L-G16RevC.01  3-Jul-2019

 -----------------------------------------------------------------
 #RHF/6-31G* int=nobasistransform Symmetry=None 5D 7F Pop=NBO7Read
 -----------------------------------------------------------------

 ----------
 mol132-NBO
 ----------
 Symbolic Z-matrix:
 Charge =  0 Multiplicity = 1

                          Input orientation:
 ---------------------------------------------------------------------
 Center     Atomic      Atomic             Coordinates (Angstroms)
 Number     Number       Type             X           Y           Z
 ---------------------------------------------------------------------
      1         16           0        0.000000    0.000000    1.189753
      2          6           0        0.000000    1.233876   -0.001474
      3          6           0        0.000000   -1.233876   -0.001474
      4          6           0        0.000000    0.709173   -1.272322
      5          6           0        0.000000   -0.709173   -1.272322
      6          1           0        0.000000    2.275343    0.291984
      7          1           0        0.000000   -2.275343    0.291984
      8          1           0        0.000000    1.321934   -2.167231
      9          1           0        0.000000   -1.321934   -2.167231
 ---------------------------------------------------------------------

 SCF Done:  E(RHF) =  -551.286285618     A.U. after   12 cycles

 Alpha  occ. eigenvalues --  -91.96322 -11.25811 -11.25809 -11.23617 -11.23517
 Alpha  occ. eigenvalues --   -8.97899  -6.66080  -6.65984  -6.65830  -1.16809
 Alpha  occ. eigenvalues --   -0.98335  -0.97738  -0.76198  -0.74705  -0.69234
 Alpha  occ. eigenvalues --   -0.57010  -0.54714  -0.52530  -0.51734  -0.47198
 Alpha  occ. eigenvalues --   -0.34183  -0.32044
 Alpha virt. eigenvalues --    0.13146   0.19056   0.23456   0.24312   0.26775
 Alpha virt. eigenvalues --    0.30278   0.31963   0.32399   0.40579   0.46238
 Alpha virt. eigenvalues --    0.47322   0.54392   0.58641   0.63651   0.63896

 Mulliken charges:
               1
     1  S    0.315369
     2  C   -0.427908
     3  C   -0.427908
     4  C   -0.174880
     5  C   -0.174880
     6  H    0.234656
     7  H    0.234656
     8  H    0.210447
     9  H    0.210447
 Sum of Mulliken charges =  -0.00000

 Dipole moment (field-independent basis, Debye):
    X=              0.0000    Y=              0.0000    Z=             -0.7649  Tot=              0.7649
 Quadrupole moment (field-independent basis, Debye-Ang):
   XX=            -40.6579   YY=            -31.0407   ZZ=            -34.7779
   XY=             -0.0000   XZ=              0.0000   YZ=             -0.0000

 Summary of Natural Population Analysis:

                                     Natural Population
             Natural    ---------------------------------------------
  Atom No    Charge        Core      Valence    Rydberg      Total
 --------------------------------------------------------------------
    S  1    0.44774      9.99998     5.49516    0.05712    15.55226
    C  2   -0.44705      1.99999     4.42413    0.02293     6.44705
    C  3   -0.44705      1.99999     4.42413    0.02293     6.44705
    C  4   -0.27275      1.99999     4.25059    0.02216     6.27275
    C  5   -0.27275      1.99999     4.25059    0.02216     6.27275
    H  6    0.25430      0.00000     0.74536    0.00035     0.74570
    H  7    0.25430      0.00000     0.74536    0.00035     0.74570
    H  8    0.24163      0.00000     0.75797    0.00039     0.75837
    H  9    0.24163      0.00000     0.75797    0.00039     0.75837
 ====================================================================
 * Total *  0.00000     17.99996    25.85127    0.14878    44.00000

 Normal termination of Gaussian 16 at Mon Nov 18 16:41:12 2024.
