 Gaussian 16, Revision C.01,
 Gaussian 16:  ES64L-G16RevC.01  3-Jul-2019

 -----------------------------------------------------------------
 #RHF/STO-3G int=nobasistransform Symmetry=None 5D 7F Pop=NBO7Read
 -----------------------------------------------------------------

 ---------
 mol99-NBO
 ---------
 Symbolic Z-matrix:
 Charge =  0 Multiplicity = 1

                          Input orientation:
 ---------------------------------------------------------------------
 Center     Atomic      Atomic             Coordinates (Angstroms)
 Number     Number       Type             X           Y           Z
 ---------------------------------------------------------------------
      1          6           0       -0.114282   -1.314565    0.000000
      2          7           0        0.000000    0.166480    0.000000
      3          1           0        0.899565   -1.715256    0.000000
      4          1           0       -0.640921   -1.607212    0.904956
      5          1           0       -0.640921   -1.607212   -0.904956
      6          8           0        0.066748    0.728232   -1.103775
      7          8           0        0.066748    0.728232    1.103775
 ---------------------------------------------------------------------

 SCF Done:  E(RHF) =  -240.418612420     A.U. after   12 cycles

 Alpha  occ. eigenvalues --  -20.26162 -20.26160 -15.64908 -11.13968  -1.50240
 Alpha  occ. eigenvalues --   -1.28852  -1.04066  -0.79103  -0.66984  -0.65180
 Alpha  occ. eigenvalues --   -0.63204  -0.54850  -0.54186  -0.36124  -0.35026
 Alpha  occ. eigenvalues --   -0.28013
 Alpha virt. eigenvalues --    0.21487   0.50877   0.63038   0.65470   0.66691
 Alpha virt. eigenvalues --    0.73495   0.88074

 Mulliken charges:
               1
     1  C   -0.099656
     2  N    0.158824
     3  H    0.108095
     4  H    0.110276
     5  H    0.110276
     6  O   -0.193907
     7  O   -0.193907
 Sum of Mulliken charges =  -0.00000

 Dipole moment (field-independent basis, Debye):
    X=             -0.2600    Y=             -3.0693    Z=              0.0000  Tot=              3.0802
 Quadrupole moment (field-independent basis, Debye-Ang):
   XX=            -19.5735   YY=            -20.5424   ZZ=            -24.2758
   XY=             -0.1397   XZ=              0.0000   YZ=              0.0000

 Summary of Natural Population Analysis:

                                     Natural Population
             Natural    ---------------------------------------------
  Atom No    Charge        Core      Valence    Rydberg      Total
 --------------------------------------------------------------------
    C  1   -0.06518      2.00000     4.06518    0.00000     6.06518
    N  2    0.28921      2.00000     4.71079    0.00000     6.71079
    H  3    0.08258      0.00000     0.91742    0.00000     0.91742
    H  4    0.08319      0.00000     0.91681    0.00000     0.91681
    H  5    0.08319      0.00000     0.91681    0.00000     0.91681
    O  6   -0.23650      2.00000     6.23650    0.00000     8.23650
    O  7   -0.23650      2.00000     6.23650    0.00000     8.23650
 ====================================================================
 * Total *  0.00000      7.99999    24.00001    0.00000    32.00000

 Normal termination of Gaussian 16 at Mon Nov 18 15:41:26 2024.
