 Gaussian 16, Revision C.01,
 Gaussian 16:  ES64L-G16RevC.01  3-Jul-2019

 ----------------------------------------------------
 #OPT=VeryTight Int=UltraFine RHF/STO-3G Pop=NBO7Read
 ----------------------------------------------------

 ---------
 NBO-LiBH2
 ---------
 Symbolic Z-matrix:
 Charge =  0 Multiplicity = 1

 SCF Done:  E(RHF) =  -32.7767069789     A.U. after   10 cycles
 SCF Done:  E(RHF) =  -32.7767072730     A.U. after    7 cycles
 SCF Done:  E(RHF) =  -32.7767072991     A.U. after    6 cycles
 SCF Done:  E(RHF) =  -32.7767072993     A.U. after    5 cycles
 SCF Done:  E(RHF) =  -32.7767072993     A.U. after    4 cycles
 Optimization completed.
    -- Stationary point found.

                         Standard orientation:
 ---------------------------------------------------------------------
 Center     Atomic      Atomic             Coordinates (Angstroms)
 Number     Number       Type             X           Y           Z
 ---------------------------------------------------------------------
      1          5           0       -0.000000    0.000000    0.528635
      2          3           0        0.000000    0.000000   -1.664885
      3          1           0       -0.000000    0.966980    1.175741
      4          1           0       -0.000000   -0.966980    1.175741
 ---------------------------------------------------------------------

 The electronic state is 1-A1.
 Alpha  occ. eigenvalues --   -7.35805  -2.32922  -0.59524  -0.40745  -0.22254
 Alpha virt. eigenvalues --    0.09136   0.14522   0.17501   0.33555   0.46957
 Alpha virt. eigenvalues --    0.81025   0.83933

 Mulliken charges:
               1
     1  B    0.238582
     2  Li  -0.076437
     3  H   -0.081072
     4  H   -0.081072
 Sum of Mulliken charges =   0.00000

 Dipole moment (field-independent basis, Debye):
    X=              0.0000    Y=             -0.0000    Z=             -3.9184  Tot=              3.9184
 Quadrupole moment (field-independent basis, Debye-Ang):
   XX=            -10.5090   YY=            -12.7383   ZZ=             -1.1873
   XY=             -0.0000   XZ=              0.0000   YZ=              0.0000

 Summary of Natural Population Analysis:

                                     Natural Population
             Natural    ---------------------------------------------
  Atom No    Charge        Core      Valence    Rydberg      Total
 --------------------------------------------------------------------
    B  1    0.14969      1.99998     2.85032    0.00000     4.85031
   Li  2    0.22787      1.99998     0.64625    0.12590     2.77213
    H  3   -0.18878      0.00000     1.18878    0.00000     1.18878
    H  4   -0.18878      0.00000     1.18878    0.00000     1.18878
 ====================================================================
 * Total *  0.00000      3.99997     5.87413    0.12590    10.00000

 Normal termination of Gaussian 16 at Wed Jul 24 10:54:22 2024.
