 Gaussian 16, Revision C.01,
 Gaussian 16:  ES64L-G16RevC.01  3-Jul-2019

 ----------------------------------------------------
 #OPT=VeryTight Int=UltraFine RHF/STO-3G Pop=NBO7Read
 ----------------------------------------------------

 --------
 NBO-CH3F
 --------
 Symbolic Z-matrix:
 Charge =  0 Multiplicity = 1

 SCF Done:  E(RHF) =  -137.167046468     A.U. after    8 cycles
 SCF Done:  E(RHF) =  -137.168879199     A.U. after    9 cycles
 SCF Done:  E(RHF) =  -137.169052243     A.U. after    8 cycles
 SCF Done:  E(RHF) =  -137.169055978     A.U. after    6 cycles
 SCF Done:  E(RHF) =  -137.169056538     A.U. after    6 cycles
 SCF Done:  E(RHF) =  -137.169056538     A.U. after    3 cycles
 Optimization completed.
    -- Stationary point found.

                         Standard orientation:
 ---------------------------------------------------------------------
 Center     Atomic      Atomic             Coordinates (Angstroms)
 Number     Number       Type             X           Y           Z
 ---------------------------------------------------------------------
      1          6           0       -0.627547    0.000000    0.000000
      2          1           0       -1.013435    0.888920    0.513132
      3          1           0       -1.013435   -0.888846    0.513261
      4          1           0       -1.013434   -0.000074   -1.026393
      5          9           0        0.756176    0.000000    0.000000
 ---------------------------------------------------------------------

 The electronic state is 1-A.
 Alpha  occ. eigenvalues --  -25.92639 -11.11072  -1.48111  -0.89383  -0.60104
 Alpha  occ. eigenvalues --   -0.60104  -0.53584  -0.41814  -0.41814
 Alpha virt. eigenvalues --    0.59651   0.68155   0.68155   0.71224

 Mulliken charges:
               1
     1  C   -0.046245
     2  H    0.064094
     3  H    0.064094
     4  H    0.064094
     5  F   -0.146037
 Sum of Mulliken charges =  -0.00000

 Dipole moment (field-independent basis, Debye):
    X=             -1.1548    Y=             -0.0000    Z=             -0.0000  Tot=              1.1548
 Quadrupole moment (field-independent basis, Debye-Ang):
   XX=            -11.3467   YY=            -10.8464   ZZ=            -10.8464
   XY=             -0.0000   XZ=              0.0000   YZ=              0.0000

 Summary of Natural Population Analysis:

                                     Natural Population
             Natural    ---------------------------------------------
  Atom No    Charge        Core      Valence    Rydberg      Total
 --------------------------------------------------------------------
    C  1    0.06129      1.99998     3.93874    0.00000     5.93871
    H  2    0.03124      0.00000     0.96876    0.00000     0.96876
    H  3    0.03124      0.00000     0.96876    0.00000     0.96876
    H  4    0.03124      0.00000     0.96876    0.00000     0.96876
    F  5   -0.15499      2.00000     7.15499    0.00000     9.15499
 ====================================================================
 * Total *  0.00000      3.99998    14.00002    0.00000    18.00000

 Normal termination of Gaussian 16 at Wed Jul 24 11:04:42 2024.
