 Gaussian 16, Revision C.01,
 Gaussian 16:  ES64L-G16RevC.01  3-Jul-2019

 -----------------------------------------------------------------
 #RHF/STO-3G int=nobasistransform Symmetry=None 5D 7F Pop=NBO7Read
 -----------------------------------------------------------------

 ----------
 mol114-NBO
 ----------
 Symbolic Z-matrix:
 Charge =  0 Multiplicity = 1

                          Input orientation:
 ---------------------------------------------------------------------
 Center     Atomic      Atomic             Coordinates (Angstroms)
 Number     Number       Type             X           Y           Z
 ---------------------------------------------------------------------
      1          6           0        0.000000    1.165725   -0.199950
      2          8           0        0.000000    0.000000    0.600110
      3          6           0        0.000000   -1.165725   -0.199950
      4          1           0        0.000000    2.017769    0.480203
      5          1           0        0.891784    1.214320   -0.840474
      6          1           0       -0.891784    1.214320   -0.840474
      7          1           0        0.000000   -2.017769    0.480203
      8          1           0       -0.891784   -1.214320   -0.840474
      9          1           0        0.891784   -1.214320   -0.840474
 ---------------------------------------------------------------------

 SCF Done:  E(RHF) =  -152.132898073     A.U. after   10 cycles

 Alpha  occ. eigenvalues --  -20.26791 -11.08921 -11.08894  -1.30453  -0.92146
 Alpha  occ. eigenvalues --   -0.83359  -0.61167  -0.60053  -0.57552  -0.51980
 Alpha  occ. eigenvalues --   -0.47979  -0.39195  -0.33563
 Alpha virt. eigenvalues --    0.56924   0.66002   0.67493   0.69179   0.69805
 Alpha virt. eigenvalues --    0.70597   0.73184   0.79334

 Mulliken charges:
               1
     1  C   -0.057303
     2  O   -0.247573
     3  C   -0.057303
     4  H    0.071906
     5  H    0.054592
     6  H    0.054592
     7  H    0.071906
     8  H    0.054592
     9  H    0.054592
 Sum of Mulliken charges =   0.00000

 Dipole moment (field-independent basis, Debye):
    X=              0.0000    Y=              0.0000    Z=             -1.2900  Tot=              1.2900
 Quadrupole moment (field-independent basis, Debye-Ang):
   XX=            -18.5882   YY=            -16.9054   ZZ=            -19.5251
   XY=              0.0000   XZ=             -0.0000   YZ=             -0.0000

 Summary of Natural Population Analysis:

                                     Natural Population
             Natural    ---------------------------------------------
  Atom No    Charge        Core      Valence    Rydberg      Total
 --------------------------------------------------------------------
    C  1    0.02477      1.99999     3.97525    0.00000     5.97523
    O  2   -0.24432      2.00000     6.24432    0.00000     8.24432
    C  3    0.02477      1.99999     3.97525    0.00000     5.97523
    H  4    0.04328      0.00000     0.95672    0.00000     0.95672
    H  5    0.02706      0.00000     0.97294    0.00000     0.97294
    H  6    0.02706      0.00000     0.97294    0.00000     0.97294
    H  7    0.04328      0.00000     0.95672    0.00000     0.95672
    H  8    0.02706      0.00000     0.97294    0.00000     0.97294
    H  9    0.02706      0.00000     0.97294    0.00000     0.97294
 ====================================================================
 * Total *  0.00000      5.99997    20.00003    0.00000    26.00000

 Normal termination of Gaussian 16 at Mon Nov 18 15:41:27 2024.
