 Gaussian 16, Revision C.01,
 Gaussian 16:  ES64L-G16RevC.01  3-Jul-2019

 -----------------------------------------------------------------
 #RHF/STO-3G int=nobasistransform Symmetry=None 5D 7F Pop=NBO7Read
 -----------------------------------------------------------------

 ---------
 mol81-NBO
 ---------
 Symbolic Z-matrix:
 Charge =  0 Multiplicity = 1

                          Input orientation:
 ---------------------------------------------------------------------
 Center     Atomic      Atomic             Coordinates (Angstroms)
 Number     Number       Type             X           Y           Z
 ---------------------------------------------------------------------
      1          6           0        0.000000    0.000000    0.587716
      2          6           0        0.000000    1.266857   -0.260186
      3          6           0        0.000000   -1.266857   -0.260186
      4          1           0       -0.876898    0.000000    1.244713
      5          1           0        0.876898    0.000000    1.244713
      6          1           0        0.000000    2.166150    0.362066
      7          1           0        0.000000   -2.166150    0.362066
      8          1           0        0.883619    1.304234   -0.904405
      9          1           0       -0.883619    1.304234   -0.904405
     10          1           0       -0.883619   -1.304234   -0.904405
     11          1           0        0.883619   -1.304234   -0.904405
 ---------------------------------------------------------------------

 SCF Done:  E(RHF) =  -116.885567499     A.U. after    8 cycles

 Alpha  occ. eigenvalues --  -11.04229 -11.03272 -11.03264  -1.01581  -0.88907
 Alpha  occ. eigenvalues --   -0.76711  -0.59665  -0.56825  -0.52063  -0.50193
 Alpha  occ. eigenvalues --   -0.44098  -0.43925  -0.43466
 Alpha virt. eigenvalues --    0.61828   0.62202   0.66700   0.71149   0.71532
 Alpha virt. eigenvalues --    0.76496   0.76554   0.78269   0.78915   0.81177

 Mulliken charges:
               1
     1  C   -0.090383
     2  C   -0.171848
     3  C   -0.171848
     4  H    0.051834
     5  H    0.051834
     6  H    0.056000
     7  H    0.056000
     8  H    0.054603
     9  H    0.054603
    10  H    0.054603
    11  H    0.054603
 Sum of Mulliken charges =  -0.00000

 Dipole moment (field-independent basis, Debye):
    X=              0.0000    Y=             -0.0000    Z=              0.0225  Tot=              0.0225
 Quadrupole moment (field-independent basis, Debye-Ang):
   XX=            -20.2536   YY=            -20.8141   ZZ=            -20.5037
   XY=             -0.0000   XZ=             -0.0000   YZ=             -0.0000

 Summary of Natural Population Analysis:

                                     Natural Population
             Natural    ---------------------------------------------
  Atom No    Charge        Core      Valence    Rydberg      Total
 --------------------------------------------------------------------
    C  1   -0.04461      2.00000     4.04461    0.00000     6.04461
    C  2   -0.12895      2.00000     4.12896    0.00000     6.12895
    C  3   -0.12895      2.00000     4.12896    0.00000     6.12895
    H  4    0.03263      0.00000     0.96737    0.00000     0.96737
    H  5    0.03263      0.00000     0.96737    0.00000     0.96737
    H  6    0.04054      0.00000     0.95946    0.00000     0.95946
    H  7    0.04054      0.00000     0.95946    0.00000     0.95946
    H  8    0.03904      0.00000     0.96096    0.00000     0.96096
    H  9    0.03904      0.00000     0.96096    0.00000     0.96096
    H 10    0.03904      0.00000     0.96096    0.00000     0.96096
    H 11    0.03904      0.00000     0.96096    0.00000     0.96096
 ====================================================================
 * Total *  0.00000      5.99999    20.00001    0.00000    26.00000

 Normal termination of Gaussian 16 at Mon Nov 18 15:41:33 2024.
