 Gaussian 16, Revision C.01,
 Gaussian 16:  ES64L-G16RevC.01  3-Jul-2019

 -----------------------------------------------------------------
 #RHF/6-31G* int=nobasistransform Symmetry=None 5D 7F Pop=NBO7Read
 -----------------------------------------------------------------

 ---------
 mol27-NBO
 ---------
 Symbolic Z-matrix:
 Charge =  0 Multiplicity = 1

                          Input orientation:
 ---------------------------------------------------------------------
 Center     Atomic      Atomic             Coordinates (Angstroms)
 Number     Number       Type             X           Y           Z
 ---------------------------------------------------------------------
      1          6           0        0.000000    0.000000   -0.511747
      2          7           0        0.000000    0.000000    0.664461
      3          1           0        0.000000    0.000000   -1.580746
 ---------------------------------------------------------------------

 SCF Done:  E(RHF) =  -92.8695257069     A.U. after   10 cycles

 Alpha  occ. eigenvalues --  -15.61206 -11.30058  -1.22174  -0.81072  -0.57531
 Alpha  occ. eigenvalues --   -0.48353  -0.48353
 Alpha virt. eigenvalues --    0.18737   0.18737   0.22617   0.42917   0.74161
 Alpha virt. eigenvalues --    0.74161   0.84782   0.90327   1.03478   1.03478
 Alpha virt. eigenvalues --    1.03766   1.39515   1.70883   1.78163   1.78163

 Mulliken charges:
               1
     1  C    0.028482
     2  N   -0.346705
     3  H    0.318223
 Sum of Mulliken charges =  -0.00000

 Dipole moment (field-independent basis, Debye):
    X=             -0.0000    Y=             -0.0000    Z=             -3.2522  Tot=              3.2522
 Quadrupole moment (field-independent basis, Debye-Ang):
   XX=            -11.7468   YY=            -11.7468   ZZ=             -9.4504
   XY=              0.0000   XZ=              0.0000   YZ=              0.0000

 Summary of Natural Population Analysis:

                                     Natural Population
             Natural    ---------------------------------------------
  Atom No    Charge        Core      Valence    Rydberg      Total
 --------------------------------------------------------------------
    C  1    0.11472      1.99999     3.85742    0.02787     5.88528
    N  2   -0.35522      1.99999     5.32895    0.02629     7.35522
    H  3    0.24050      0.00000     0.75915    0.00035     0.75950
 ====================================================================
 * Total *  0.00000      3.99998     9.94552    0.05450    14.00000

 Normal termination of Gaussian 16 at Mon Nov 18 16:40:06 2024.
