 Gaussian 16, Revision C.01,
 Gaussian 16:  ES64L-G16RevC.01  3-Jul-2019

 -----------------------------------------------------------------
 #RHF/6-31G* int=nobasistransform Symmetry=None 5D 7F Pop=NBO7Read
 -----------------------------------------------------------------

 ---------
 mol21-NBO
 ---------
 Symbolic Z-matrix:
 Charge =  0 Multiplicity = 1

                          Input orientation:
 ---------------------------------------------------------------------
 Center     Atomic      Atomic             Coordinates (Angstroms)
 Number     Number       Type             X           Y           Z
 ---------------------------------------------------------------------
      1          3           0        0.000000    0.000000    1.386530
      2          3           0        0.000000    0.000000   -1.386530
 ---------------------------------------------------------------------

 SCF Done:  E(RHF) =  -14.8664073107     A.U. after    9 cycles

 Alpha  occ. eigenvalues --   -2.44265  -2.44243  -0.17594
 Alpha virt. eigenvalues --    0.01608   0.04621   0.04621   0.06222   0.09112
 Alpha virt. eigenvalues --    0.09112   0.13791   0.19647   0.21105   0.21105
 Alpha virt. eigenvalues --    0.22340   0.26251   0.26418   0.26418   0.46841

 Mulliken charges:
               1
     1  Li   0.000000
     2  Li  -0.000000
 Sum of Mulliken charges =   0.00000

 Dipole moment (field-independent basis, Debye):
    X=              0.0000    Y=              0.0000    Z=              0.0000  Tot=              0.0000
 Quadrupole moment (field-independent basis, Debye-Ang):
   XX=            -15.3907   YY=            -15.3907   ZZ=             -2.5084
   XY=             -0.0000   XZ=             -0.0000   YZ=              0.0000

 Summary of Natural Population Analysis:

                                     Natural Population
             Natural    ---------------------------------------------
  Atom No    Charge        Core      Valence    Rydberg      Total
 --------------------------------------------------------------------
   Li  1    0.00000      1.99999     0.97452    0.02549     3.00000
   Li  2    0.00000      1.99999     0.97452    0.02549     3.00000
 ====================================================================
 * Total *  0.00000      3.99998     1.94905    0.05097     6.00000

 Normal termination of Gaussian 16 at Mon Nov 18 16:40:07 2024.
