 Gaussian 16, Revision C.01,
 Gaussian 16:  ES64L-G16RevC.01  3-Jul-2019

 -----------------------------------------------------------------
 #RHF/6-31G* int=nobasistransform Symmetry=None 5D 7F Pop=NBO7Read
 -----------------------------------------------------------------

 ---------
 mol76-NBO
 ---------
 Symbolic Z-matrix:
 Charge =  0 Multiplicity = 1

                          Input orientation:
 ---------------------------------------------------------------------
 Center     Atomic      Atomic             Coordinates (Angstroms)
 Number     Number       Type             X           Y           Z
 ---------------------------------------------------------------------
      1          6           0        0.000000    0.000000    0.214947
      2          6           0        0.000000    0.000000    1.433130
      3          6           0        0.000000    0.000000   -1.246476
      4          1           0        0.000000    0.000000    2.498887
      5          1           0        0.000000    1.021145   -1.636167
      6          1           0        0.884337   -0.510572   -1.636167
      7          1           0       -0.884337   -0.510572   -1.636167
 ---------------------------------------------------------------------

 SCF Done:  E(RHF) =  -115.861345058     A.U. after   11 cycles

 Alpha  occ. eigenvalues --  -11.24626 -11.23508 -11.22030  -1.04909  -0.94901
 Alpha  occ. eigenvalues --   -0.71332  -0.61607  -0.58829  -0.58829  -0.37326
 Alpha  occ. eigenvalues --   -0.37326
 Alpha virt. eigenvalues --    0.21844   0.21844   0.25017   0.27498   0.33936
 Alpha virt. eigenvalues --    0.33936   0.41097   0.59468   0.65119   0.73941
 Alpha virt. eigenvalues --    0.73941   0.84905   0.84905   0.96851   0.96851

 Mulliken charges:
               1
     1  C    0.093133
     2  C   -0.447876
     3  C   -0.548344
     4  H    0.287013
     5  H    0.205358
     6  H    0.205358
     7  H    0.205358
 Sum of Mulliken charges =  -0.00000

 Dipole moment (field-independent basis, Debye):
    X=              0.0000    Y=             -0.0000    Z=             -0.6559  Tot=              0.6559
 Quadrupole moment (field-independent basis, Debye-Ang):
   XX=            -19.6022   YY=            -19.6022   ZZ=            -13.4717
   XY=             -0.0000   XZ=             -0.0000   YZ=              0.0000

 Summary of Natural Population Analysis:

                                     Natural Population
             Natural    ---------------------------------------------
  Atom No    Charge        Core      Valence    Rydberg      Total
 --------------------------------------------------------------------
    C  1   -0.02647      1.99999     4.01236    0.01411     6.02647
    C  2   -0.26241      1.99999     4.25397    0.00844     6.26241
    C  3   -0.69914      1.99999     4.68607    0.01309     6.69914
    H  4    0.24500      0.00000     0.75439    0.00061     0.75500
    H  5    0.24767      0.00000     0.75129    0.00103     0.75233
    H  6    0.24767      0.00000     0.75129    0.00103     0.75233
    H  7    0.24767      0.00000     0.75129    0.00103     0.75233
 ====================================================================
 * Total *  0.00000      5.99998    15.96068    0.03935    22.00000

 Normal termination of Gaussian 16 at Mon Nov 18 16:40:43 2024.
