 Gaussian 16, Revision C.01,
 Gaussian 16:  ES64L-G16RevC.01  3-Jul-2019

 -----------------------------------------------------------------
 #RHF/STO-3G int=nobasistransform Symmetry=None 5D 7F Pop=NBO7Read
 -----------------------------------------------------------------

 ---------
 mol31-NBO
 ---------
 Symbolic Z-matrix:
 Charge =  0 Multiplicity = 1

                          Input orientation:
 ---------------------------------------------------------------------
 Center     Atomic      Atomic             Coordinates (Angstroms)
 Number     Number       Type             X           Y           Z
 ---------------------------------------------------------------------
      1          6           0       -0.047131    0.664389    0.000000
      2          8           0       -0.047131   -0.758551    0.000000
      3          1           0       -1.092995    0.969785    0.000000
      4          1           0        0.878534   -1.048458    0.000000
      5          1           0        0.437145    1.080376    0.891772
      6          1           0        0.437145    1.080376   -0.891772
 ---------------------------------------------------------------------

 SCF Done:  E(RHF) =  -113.548060310     A.U. after   10 cycles

 Alpha  occ. eigenvalues --  -20.25699 -11.08742  -1.28240  -0.87826  -0.61523
 Alpha  occ. eigenvalues --   -0.57273  -0.52244  -0.41324  -0.35696
 Alpha virt. eigenvalues --    0.58078   0.65889   0.69837   0.72319   0.75335

 Mulliken charges:
               1
     1  C   -0.065468
     2  O   -0.296757
     3  H    0.071215
     4  H    0.183722
     5  H    0.053644
     6  H    0.053644
 Sum of Mulliken charges =   0.00000

 Dipole moment (field-independent basis, Debye):
    X=              1.2533    Y=              0.8067    Z=             -0.0000  Tot=              1.4905
 Quadrupole moment (field-independent basis, Debye-Ang):
   XX=            -11.0682   YY=            -12.4049   ZZ=            -12.3484
   XY=             -1.4998   XZ=             -0.0000   YZ=             -0.0000

 Summary of Natural Population Analysis:

                                     Natural Population
             Natural    ---------------------------------------------
  Atom No    Charge        Core      Valence    Rydberg      Total
 --------------------------------------------------------------------
    C  1    0.02146      1.99998     3.97856    0.00000     5.97854
    O  2   -0.31305      2.00000     6.31305    0.00000     8.31305
    H  3    0.04241      0.00000     0.95759    0.00000     0.95759
    H  4    0.19714      0.00000     0.80286    0.00000     0.80286
    H  5    0.02602      0.00000     0.97398    0.00000     0.97398
    H  6    0.02602      0.00000     0.97398    0.00000     0.97398
 ====================================================================
 * Total *  0.00000      3.99998    14.00002    0.00000    18.00000

 Normal termination of Gaussian 16 at Mon Nov 18 15:41:19 2024.
