 Gaussian 16, Revision C.01,
 Gaussian 16:  ES64L-G16RevC.01  3-Jul-2019

 -----------------------------------------------------------------
 #RHF/6-31G* int=nobasistransform Symmetry=None 5D 7F Pop=NBO7Read
 -----------------------------------------------------------------

 ---------
 mol51-NBO
 ---------
 Symbolic Z-matrix:
 Charge =  0 Multiplicity = 1

                          Input orientation:
 ---------------------------------------------------------------------
 Center     Atomic      Atomic             Coordinates (Angstroms)
 Number     Number       Type             X           Y           Z
 ---------------------------------------------------------------------
      1          6           0        0.000000    0.000000   -1.121389
      2         17           0        0.000000    0.000000    0.655951
      3          1           0        0.000000    1.029318   -1.474280
      4          1           0        0.891415   -0.514659   -1.474280
      5          1           0       -0.891415   -0.514659   -1.474280
 ---------------------------------------------------------------------

 SCF Done:  E(RHF) =  -499.090941025     A.U. after   10 cycles

 Alpha  occ. eigenvalues -- -104.80602 -11.28800 -10.54559  -8.01418  -8.01076
 Alpha  occ. eigenvalues --   -8.01076  -1.13080  -0.91596  -0.61935  -0.61935
 Alpha  occ. eigenvalues --   -0.54819  -0.43466  -0.43466
 Alpha virt. eigenvalues --    0.19555   0.25815   0.28993   0.28993   0.59884
 Alpha virt. eigenvalues --    0.62732   0.65214   0.65214   0.72764   0.72764
 Alpha virt. eigenvalues --    0.78712   1.10414   1.10414   1.16869   1.17310

 Mulliken charges:
               1
     1  C   -0.552037
     2  Cl  -0.099928
     3  H    0.217322
     4  H    0.217322
     5  H    0.217322
 Sum of Mulliken charges =  -0.00000

 Dipole moment (field-independent basis, Debye):
    X=             -0.0000    Y=             -0.0000    Z=             -2.2020  Tot=              2.2020
 Quadrupole moment (field-independent basis, Debye-Ang):
   XX=            -20.0174   YY=            -20.0174   ZZ=            -18.2658
   XY=              0.0000   XZ=              0.0000   YZ=              0.0000

 Summary of Natural Population Analysis:

                                     Natural Population
             Natural    ---------------------------------------------
  Atom No    Charge        Core      Valence    Rydberg      Total
 --------------------------------------------------------------------
    C  1   -0.60853      1.99999     4.59554    0.01300     6.60853
   Cl  2   -0.09581      9.99999     7.07237    0.02344    17.09581
    H  3    0.23478      0.00000     0.76380    0.00142     0.76522
    H  4    0.23478      0.00000     0.76380    0.00142     0.76522
    H  5    0.23478      0.00000     0.76380    0.00142     0.76522
 ====================================================================
 * Total *  0.00000     11.99998    13.95932    0.04070    26.00000

 Normal termination of Gaussian 16 at Mon Nov 18 16:40:06 2024.
