 Gaussian 16, Revision C.01,
 Gaussian 16:  ES64L-G16RevC.01  3-Jul-2019

 -----------------------------------------------------------------
 #RHF/6-31G* int=nobasistransform Symmetry=None 5D 7F Pop=NBO7Read
 -----------------------------------------------------------------

 ---------
 mol66-NBO
 ---------
 Symbolic Z-matrix:
 Charge =  0 Multiplicity = 1

                          Input orientation:
 ---------------------------------------------------------------------
 Center     Atomic      Atomic             Coordinates (Angstroms)
 Number     Number       Type             X           Y           Z
 ---------------------------------------------------------------------
      1          7           0        0.000000    0.000000   -1.231969
      2          7           0        0.000000    0.000000   -0.060851
      3          8           0        0.000000    0.000000    1.131218
 ---------------------------------------------------------------------

 SCF Done:  E(RHF) =  -183.662091000     A.U. after   12 cycles

 Alpha  occ. eigenvalues --  -20.67370 -15.86372 -15.71959  -1.60552  -1.39982
 Alpha  occ. eigenvalues --   -0.83636  -0.74987  -0.74987  -0.69464  -0.48330
 Alpha  occ. eigenvalues --   -0.48330
 Alpha virt. eigenvalues --    0.13620   0.13620   0.33658   0.57008   0.82380
 Alpha virt. eigenvalues --    0.82380   0.83135   0.94293   0.97631   0.97631
 Alpha virt. eigenvalues --    0.97834   1.22495   1.22495   1.35011   1.54061

 Mulliken charges:
               1
     1  N   -0.051816
     2  N    0.616445
     3  O   -0.564629
 Sum of Mulliken charges =   0.00000

 Dipole moment (field-independent basis, Debye):
    X=             -0.0000    Y=              0.0000    Z=             -0.4972  Tot=              0.4972
 Quadrupole moment (field-independent basis, Debye-Ang):
   XX=            -15.4489   YY=            -15.4489   ZZ=            -19.3564
   XY=             -0.0000   XZ=              0.0000   YZ=              0.0000

 Summary of Natural Population Analysis:

                                     Natural Population
             Natural    ---------------------------------------------
  Atom No    Charge        Core      Valence    Rydberg      Total
 --------------------------------------------------------------------
    N  1   -0.09747      1.99999     5.06645    0.03103     7.09747
    N  2    0.53053      1.99999     4.42673    0.04275     6.46947
    O  3   -0.43306      1.99999     6.40621    0.02686     8.43306
 ====================================================================
 * Total *  0.00000      5.99998    15.89939    0.10063    22.00000

 Normal termination of Gaussian 16 at Mon Nov 18 16:40:42 2024.
