 Gaussian 16, Revision C.01,
 Gaussian 16:  ES64L-G16RevC.01  3-Jul-2019

 ------------------------
 #RHF/6-31G* Pop=NBO7Read
 ------------------------

 -----
 NBO-a
 -----
 Symbolic Z-matrix:
 Charge =  0 Multiplicity = 1

                         Standard orientation:
 ---------------------------------------------------------------------
 Center     Atomic      Atomic             Coordinates (Angstroms)
 Number     Number       Type             X           Y           Z
 ---------------------------------------------------------------------
      1          8           0        0.000000    0.000000    0.277152
      2          3           0        0.000000    0.000000   -1.155108
      3          1           0        0.000000    0.000000    1.248109
 ---------------------------------------------------------------------

 SCF Done:  E(RHF) =  -82.8907751207     A.U. after   10 cycles

 The electronic state is 1-SG.
 Alpha  occ. eigenvalues --  -20.43941  -2.39596  -1.17270  -0.54937  -0.38450
 Alpha  occ. eigenvalues --   -0.38450
 Alpha virt. eigenvalues --    0.02071   0.08690   0.08690   0.11252   0.21441
 Alpha virt. eigenvalues --    0.27045   0.27045   0.35776   0.42422   0.60813
 Alpha virt. eigenvalues --    0.60813   0.71244   0.71244   0.75543   1.17048

 Mulliken charges:
               1
     1  O   -0.971847
     2  Li   0.573839
     3  H    0.398008
 Sum of Mulliken charges =   0.00000

 Dipole moment (field-independent basis, Debye):
    X=              0.0000    Y=              0.0000    Z=             -3.6684  Tot=              3.6684
 Quadrupole moment (field-independent basis, Debye-Ang):
   XX=             -9.2468   YY=             -9.2468   ZZ=              0.5711
   XY=              0.0000   XZ=              0.0000   YZ=              0.0000

 Summary of Natural Population Analysis:

                                     Natural Population
             Natural    ---------------------------------------------
  Atom No    Charge        Core      Valence    Rydberg      Total
 --------------------------------------------------------------------
    O  1   -1.39903      2.00000     7.39163    0.00740     9.39903
   Li  2    0.93051      1.99980     0.00957    0.06011     2.06949
    H  3    0.46852      0.00000     0.53108    0.00040     0.53148
 ====================================================================
 * Total *  0.00000      3.99980     7.93229    0.06791    12.00000

 Normal termination of Gaussian 16 at Wed Jul 24 12:08:04 2024.
