 Gaussian 16, Revision C.01,
 Gaussian 16:  ES64L-G16RevC.01  3-Jul-2019

 -----------------------------------------------------------------
 #RHF/6-31G* int=nobasistransform Symmetry=None 5D 7F Pop=NBO7Read
 -----------------------------------------------------------------

 ---------
 mol93-NBO
 ---------
 Symbolic Z-matrix:
 Charge =  0 Multiplicity = 1

                          Input orientation:
 ---------------------------------------------------------------------
 Center     Atomic      Atomic             Coordinates (Angstroms)
 Number     Number       Type             X           Y           Z
 ---------------------------------------------------------------------
      1          6           0        0.000000    0.000000    0.502903
      2          9           0        0.000000    1.109716   -0.290601
      3          9           0        0.000000   -1.109716   -0.290601
      4          1           0       -0.908369    0.000000    1.106699
      5          1           0        0.908369    0.000000    1.106699
 ---------------------------------------------------------------------

 SCF Done:  E(RHF) =  -237.892292899     A.U. after   10 cycles

 Alpha  occ. eigenvalues --  -26.30214 -26.30214 -11.40471  -1.64630  -1.58800
 Alpha  occ. eigenvalues --   -0.96374  -0.76728  -0.75764  -0.74140  -0.65423
 Alpha  occ. eigenvalues --   -0.61935  -0.61140  -0.53031
 Alpha virt. eigenvalues --    0.24914   0.30762   0.31022   0.36855   0.71892
 Alpha virt. eigenvalues --    0.74421   0.80147   1.00058   1.05589   1.11730
 Alpha virt. eigenvalues --    1.41818   1.47851   1.51052   1.53780   1.66575

 Mulliken charges:
               1
     1  C    0.545934
     2  F   -0.429566
     3  F   -0.429566
     4  H    0.156599
     5  H    0.156599
 Sum of Mulliken charges =  -0.00000

 Dipole moment (field-independent basis, Debye):
    X=             -0.0000    Y=              0.0000    Z=              2.1700  Tot=              2.1700
 Quadrupole moment (field-independent basis, Debye-Ang):
   XX=            -14.9528   YY=            -18.9141   ZZ=            -14.7308
   XY=             -0.0000   XZ=             -0.0000   YZ=             -0.0000

 Summary of Natural Population Analysis:

                                     Natural Population
             Natural    ---------------------------------------------
  Atom No    Charge        Core      Valence    Rydberg      Total
 --------------------------------------------------------------------
    C  1    0.56573      1.99999     3.40150    0.03277     5.43427
    F  2   -0.43741      2.00000     7.42817    0.00925     9.43741
    F  3   -0.43741      2.00000     7.42817    0.00925     9.43741
    H  4    0.15455      0.00000     0.84403    0.00142     0.84545
    H  5    0.15455      0.00000     0.84403    0.00142     0.84545
 ====================================================================
 * Total *  0.00000      5.99998    19.94591    0.05410    26.00000

 Normal termination of Gaussian 16 at Mon Nov 18 16:40:42 2024.
