 Gaussian 16, Revision C.01,
 Gaussian 16:  ES64L-G16RevC.01  3-Jul-2019

 -----------------------------------------------------------------
 #RHF/STO-3G int=nobasistransform Symmetry=None 5D 7F Pop=NBO7Read
 -----------------------------------------------------------------

 ---------
 mol70-NBO
 ---------
 Symbolic Z-matrix:
 Charge =  0 Multiplicity = 1

                          Input orientation:
 ---------------------------------------------------------------------
 Center     Atomic      Atomic             Coordinates (Angstroms)
 Number     Number       Type             X           Y           Z
 ---------------------------------------------------------------------
      1          8           0        0.000000    1.103810   -0.228542
      2          8           0        0.000000    0.000000    0.457084
      3          8           0        0.000000   -1.103810   -0.228542
 ---------------------------------------------------------------------

 SCF Done:  E(RHF) =  -221.288901655     A.U. after   11 cycles

 Alpha  occ. eigenvalues --  -20.62460 -20.35071 -20.35059  -1.61917  -1.29563
 Alpha  occ. eigenvalues --   -0.98034  -0.67682  -0.64132  -0.64115  -0.41608
 Alpha  occ. eigenvalues --   -0.39555  -0.32003
 Alpha virt. eigenvalues --    0.09489   0.50041   0.60848

 Mulliken charges:
               1
     1  O   -0.066504
     2  O    0.133007
     3  O   -0.066504
 Sum of Mulliken charges =   0.00000

 Dipole moment (field-independent basis, Debye):
    X=             -0.0000    Y=             -0.0000    Z=              0.4672  Tot=              0.4672
 Quadrupole moment (field-independent basis, Debye-Ang):
   XX=            -12.3806   YY=            -15.3406   ZZ=            -13.9195
   XY=              0.0000   XZ=              0.0000   YZ=              0.0000

 Summary of Natural Population Analysis:

                                     Natural Population
             Natural    ---------------------------------------------
  Atom No    Charge        Core      Valence    Rydberg      Total
 --------------------------------------------------------------------
    O  1   -0.08888      2.00000     6.08888    0.00000     8.08888
    O  2    0.17775      2.00000     5.82225    0.00000     7.82225
    O  3   -0.08888      2.00000     6.08888    0.00000     8.08888
 ====================================================================
 * Total *  0.00000      6.00000    18.00000    0.00000    24.00000

 Normal termination of Gaussian 16 at Mon Nov 18 15:41:34 2024.
