 Gaussian 16, Revision C.01,
 Gaussian 16:  ES64L-G16RevC.01  3-Jul-2019

 -----------------------------------------------------------------
 #RHF/STO-3G int=nobasistransform Symmetry=None 5D 7F Pop=NBO7Read
 -----------------------------------------------------------------

 ---------
 mol89-NBO
 ---------
 Symbolic Z-matrix:
 Charge =  0 Multiplicity = 1

                          Input orientation:
 ---------------------------------------------------------------------
 Center     Atomic      Atomic             Coordinates (Angstroms)
 Number     Number       Type             X           Y           Z
 ---------------------------------------------------------------------
      1          6           0        0.702581    1.820873    0.000000
      2          6           0        0.702581    0.296325    0.000000
      3          6           0       -0.702581   -0.296325    0.000000
      4          6           0       -0.702581   -1.820873    0.000000
      5          1           0        1.719809    2.222340    0.000000
      6          1           0       -1.719809   -2.222340    0.000000
      7          1           0        0.188154    2.210362    0.883614
      8          1           0        0.188154    2.210362   -0.883614
      9          1           0       -0.188154   -2.210362    0.883614
     10          1           0       -0.188154   -2.210362   -0.883614
     11          1           0        1.247707   -0.072660   -0.877569
     12          1           0        1.247707   -0.072660    0.877569
     13          1           0       -1.247707    0.072660   -0.877569
     14          1           0       -1.247707    0.072660    0.877569
 ---------------------------------------------------------------------

 SCF Done:  E(RHF) =  -155.465338763     A.U. after    8 cycles

 Alpha  occ. eigenvalues --  -11.03899 -11.03872 -11.03250 -11.03248  -1.03258
 Alpha  occ. eigenvalues --   -0.94314  -0.82510  -0.75491  -0.61024  -0.55527
 Alpha  occ. eigenvalues --   -0.54309  -0.53873  -0.48399  -0.46438  -0.43214
 Alpha  occ. eigenvalues --   -0.42629  -0.41881
 Alpha virt. eigenvalues --    0.59922   0.60348   0.66647   0.67580   0.68225
 Alpha virt. eigenvalues --    0.73225   0.74737   0.75757   0.76937   0.77873
 Alpha virt. eigenvalues --    0.79186   0.80330   0.82514

 Mulliken charges:
               1
     1  C   -0.172314
     2  C   -0.092093
     3  C   -0.092093
     4  C   -0.172314
     5  H    0.056230
     6  H    0.056230
     7  H    0.054534
     8  H    0.054534
     9  H    0.054534
    10  H    0.054534
    11  H    0.049554
    12  H    0.049554
    13  H    0.049554
    14  H    0.049554
 Sum of Mulliken charges =  -0.00000

 Dipole moment (field-independent basis, Debye):
    X=              0.0000    Y=             -0.0000    Z=             -0.0000  Tot=              0.0000
 Quadrupole moment (field-independent basis, Debye-Ang):
   XX=            -26.8121   YY=            -27.3606   ZZ=            -26.4691
   XY=             -0.1258   XZ=             -0.0000   YZ=             -0.0000

 Summary of Natural Population Analysis:

                                     Natural Population
             Natural    ---------------------------------------------
  Atom No    Charge        Core      Valence    Rydberg      Total
 --------------------------------------------------------------------
    C  1   -0.12927      2.00000     4.12927    0.00000     6.12927
    C  2   -0.05063      2.00000     4.05063    0.00000     6.05063
    C  3   -0.05063      2.00000     4.05063    0.00000     6.05063
    C  4   -0.12927      2.00000     4.12927    0.00000     6.12927
    H  5    0.04080      0.00000     0.95920    0.00000     0.95920
    H  6    0.04080      0.00000     0.95920    0.00000     0.95920
    H  7    0.03901      0.00000     0.96099    0.00000     0.96099
    H  8    0.03901      0.00000     0.96099    0.00000     0.96099
    H  9    0.03901      0.00000     0.96099    0.00000     0.96099
    H 10    0.03901      0.00000     0.96099    0.00000     0.96099
    H 11    0.03054      0.00000     0.96946    0.00000     0.96946
    H 12    0.03054      0.00000     0.96946    0.00000     0.96946
    H 13    0.03054      0.00000     0.96946    0.00000     0.96946
    H 14    0.03054      0.00000     0.96946    0.00000     0.96946
 ====================================================================
 * Total *  0.00000      7.99999    26.00001    0.00000    34.00000

 Normal termination of Gaussian 16 at Mon Nov 18 15:41:43 2024.
