 Gaussian 16, Revision C.01,
 Gaussian 16:  ES64L-G16RevC.01  3-Jul-2019

 -----------------------------------------------------------------
 #RHF/STO-3G int=nobasistransform Symmetry=None 5D 7F Pop=NBO7Read
 -----------------------------------------------------------------

 ---------
 mol38-NBO
 ---------
 Symbolic Z-matrix:
 Charge =  0 Multiplicity = 1

                          Input orientation:
 ---------------------------------------------------------------------
 Center     Atomic      Atomic             Coordinates (Angstroms)
 Number     Number       Type             X           Y           Z
 ---------------------------------------------------------------------
      1          6           0        0.000000    0.000000    0.000000
      2          8           0        0.000000    0.000000    1.178658
      3          8           0        0.000000    0.000000   -1.178658
 ---------------------------------------------------------------------

 SCF Done:  E(RHF) =  -185.068000147     A.U. after    8 cycles

 Alpha  occ. eigenvalues --  -20.35878 -20.35853 -11.26589  -1.44010  -1.37476
 Alpha  occ. eigenvalues --   -0.68077  -0.62713  -0.62713  -0.58589  -0.38971
 Alpha  occ. eigenvalues --   -0.38971
 Alpha virt. eigenvalues --    0.31683   0.31683   0.54694   1.33406

 Mulliken charges:
               1
     1  C    0.450827
     2  O   -0.225414
     3  O   -0.225414
 Sum of Mulliken charges =  -0.00000

 Dipole moment (field-independent basis, Debye):
    X=              0.0000    Y=              0.0000    Z=             -0.0000  Tot=              0.0000
 Quadrupole moment (field-independent basis, Debye-Ang):
   XX=            -13.0845   YY=            -13.0845   ZZ=            -18.3369
   XY=              0.0000   XZ=             -0.0000   YZ=              0.0000

 Summary of Natural Population Analysis:

                                     Natural Population
             Natural    ---------------------------------------------
  Atom No    Charge        Core      Valence    Rydberg      Total
 --------------------------------------------------------------------
    C  1    0.56727      2.00000     3.43273    0.00000     5.43273
    O  2   -0.28364      2.00000     6.28364    0.00000     8.28364
    O  3   -0.28364      2.00000     6.28364    0.00000     8.28364
 ====================================================================
 * Total *  0.00000      6.00000    16.00000    0.00000    22.00000

 Normal termination of Gaussian 16 at Mon Nov 18 15:41:21 2024.
