 Gaussian 16, Revision C.01,
 Gaussian 16:  ES64L-G16RevC.01  3-Jul-2019

 -----------------------------------------------------------------
 #RHF/6-31G* int=nobasistransform Symmetry=None 5D 7F Pop=NBO7Read
 -----------------------------------------------------------------

 ---------
 mol44-NBO
 ---------
 Symbolic Z-matrix:
 Charge =  0 Multiplicity = 1

                          Input orientation:
 ---------------------------------------------------------------------
 Center     Atomic      Atomic             Coordinates (Angstroms)
 Number     Number       Type             X           Y           Z
 ---------------------------------------------------------------------
      1         11           0        0.000000    0.000000   -1.451660
      2         17           0        0.000000    0.000000    0.939310
 ---------------------------------------------------------------------

 SCF Done:  E(RHF) =  -621.398164577     A.U. after   10 cycles

 Alpha  occ. eigenvalues -- -104.68423 -40.52141 -10.42120  -7.88861  -7.88792
 Alpha  occ. eigenvalues --   -7.88792  -2.83595  -1.55799  -1.55799  -1.55742
 Alpha  occ. eigenvalues --   -0.93580  -0.36351  -0.34757  -0.34757
 Alpha virt. eigenvalues --   -0.01597   0.04368   0.04368   0.08417   0.13658
 Alpha virt. eigenvalues --    0.19456   0.19456   0.27310   0.44524   0.44524
 Alpha virt. eigenvalues --    0.47166   0.47166   0.59365   0.77379   0.77379

 Mulliken charges:
               1
     1  Na   0.667288
     2  Cl  -0.667288
 Sum of Mulliken charges =  -0.00000

 Dipole moment (field-independent basis, Debye):
    X=              0.0000    Y=              0.0000    Z=             -9.5113  Tot=              9.5113
 Quadrupole moment (field-independent basis, Debye-Ang):
   XX=            -19.0789   YY=            -19.0789   ZZ=            -10.8826
   XY=              0.0000   XZ=             -0.0000   YZ=              0.0000

 Summary of Natural Population Analysis:

                                     Natural Population
             Natural    ---------------------------------------------
  Atom No    Charge        Core      Valence    Rydberg      Total
 --------------------------------------------------------------------
   Na  1    0.93747      9.99976     0.04331    0.01946    10.06253
   Cl  2   -0.93747      9.99999     7.93442    0.00305    17.93747
 ====================================================================
 * Total *  0.00000     19.99975     7.97773    0.02251    28.00000

 Normal termination of Gaussian 16 at Mon Nov 18 16:40:06 2024.
