 Gaussian 16, Revision C.01,
 Gaussian 16:  ES64L-G16RevC.01  3-Jul-2019

 -----------------------------------------------------------------
 #RHF/6-31G* int=nobasistransform Symmetry=None 5D 7F Pop=NBO7Read
 -----------------------------------------------------------------

 ----------
 mol104-NBO
 ----------
 Symbolic Z-matrix:
 Charge =  0 Multiplicity = 1

                          Input orientation:
 ---------------------------------------------------------------------
 Center     Atomic      Atomic             Coordinates (Angstroms)
 Number     Number       Type             X           Y           Z
 ---------------------------------------------------------------------
      1          8           0        0.424546    1.327024    0.008034
      2          6           0        0.077158    0.149789   -0.004249
      3          7           0        0.985518   -0.878537   -0.048910
      4          6           0       -1.371475   -0.288665   -0.000144
      5          1           0        0.707952   -1.824249    0.169942
      6          1           0       -1.997229    0.584922   -0.175477
      7          1           0       -1.560842   -1.039270   -0.771686
      8          1           0       -1.632113   -0.723007    0.969814
      9          1           0        1.953133   -0.631574    0.111866
 ---------------------------------------------------------------------

 SCF Done:  E(RHF) =  -207.972321337     A.U. after   13 cycles

 Alpha  occ. eigenvalues --  -20.52168 -15.58245 -11.35516 -11.23490  -1.36963
 Alpha  occ. eigenvalues --   -1.20530  -1.00386  -0.79200  -0.71698  -0.65803
 Alpha  occ. eigenvalues --   -0.61251  -0.57873  -0.55916  -0.52036  -0.42019
 Alpha  occ. eigenvalues --   -0.40757
 Alpha virt. eigenvalues --    0.19402   0.21346   0.26446   0.28683   0.30949
 Alpha virt. eigenvalues --    0.33044   0.39946   0.48869   0.55007   0.74832
 Alpha virt. eigenvalues --    0.75180   0.80578   0.83506   0.85615   0.93955

 Mulliken charges:
               1
     1  O   -0.616882
     2  C    0.757261
     3  N   -0.931497
     4  C   -0.606886
     5  H    0.388045
     6  H    0.223335
     7  H    0.192186
     8  H    0.193533
     9  H    0.400905
 Sum of Mulliken charges =  -0.00000

 Dipole moment (field-independent basis, Debye):
    X=             -0.5941    Y=             -4.0589    Z=              0.6869  Tot=              4.1593
 Quadrupole moment (field-independent basis, Debye-Ang):
   XX=            -20.7225   YY=            -26.2489   ZZ=            -24.8474
   XY=             -2.3033   XZ=              0.9096   YZ=             -1.0661

 Summary of Natural Population Analysis:

                                     Natural Population
             Natural    ---------------------------------------------
  Atom No    Charge        Core      Valence    Rydberg      Total
 --------------------------------------------------------------------
    O  1   -0.72553      1.99999     6.70576    0.01978     8.72553
    C  2    0.84789      1.99999     3.10398    0.04814     5.15211
    N  3   -0.94136      1.99999     5.92593    0.01544     7.94136
    C  4   -0.74304      1.99999     4.73032    0.01273     6.74304
    H  5    0.41199      0.00000     0.58719    0.00083     0.58801
    H  6    0.25444      0.00000     0.74457    0.00099     0.74556
    H  7    0.23351      0.00000     0.76553    0.00096     0.76649
    H  8    0.23679      0.00000     0.76242    0.00079     0.76321
    H  9    0.42532      0.00000     0.57279    0.00189     0.57468
 ====================================================================
 * Total *  0.00000      7.99997    23.89848    0.10155    32.00000

 Normal termination of Gaussian 16 at Mon Nov 18 16:40:47 2024.
