 Gaussian 16, Revision C.01,
 Gaussian 16:  ES64L-G16RevC.01  3-Jul-2019

 -----------------------------------------------------------------
 #RHF/6-31G* int=nobasistransform Symmetry=None 5D 7F Pop=NBO7Read
 -----------------------------------------------------------------

 ---------
 mol41-NBO
 ---------
 Symbolic Z-matrix:
 Charge =  0 Multiplicity = 1

                          Input orientation:
 ---------------------------------------------------------------------
 Center     Atomic      Atomic             Coordinates (Angstroms)
 Number     Number       Type             X           Y           Z
 ---------------------------------------------------------------------
      1         15           0        0.000000    0.000000    0.966144
      2         15           0        0.000000    0.000000   -0.966144
 ---------------------------------------------------------------------

 SCF Done:  E(RHF) =  -681.418262424     A.U. after    9 cycles

 Alpha  occ. eigenvalues --  -79.97048 -79.97043  -7.52462  -7.52404  -5.41620
 Alpha  occ. eigenvalues --   -5.41536  -5.41536  -5.41516  -5.41516  -5.41433
 Alpha  occ. eigenvalues --   -0.90324  -0.61313  -0.40932  -0.36754  -0.36754
 Alpha virt. eigenvalues --    0.01435   0.01435   0.18536   0.31273   0.39228
 Alpha virt. eigenvalues --    0.44145   0.44145   0.47869   0.51994   0.51994
 Alpha virt. eigenvalues --    0.64868   0.74174   0.74174   0.85801   0.85801

 Mulliken charges:
               1
     1  P   -0.000000
     2  P    0.000000
 Sum of Mulliken charges =  -0.00000

 Dipole moment (field-independent basis, Debye):
    X=             -0.0000    Y=              0.0000    Z=             -0.0000  Tot=              0.0000
 Quadrupole moment (field-independent basis, Debye-Ang):
   XX=            -26.6173   YY=            -26.6173   ZZ=            -26.8868
   XY=             -0.0000   XZ=             -0.0000   YZ=              0.0000

 Summary of Natural Population Analysis:

                                     Natural Population
             Natural    ---------------------------------------------
  Atom No    Charge        Core      Valence    Rydberg      Total
 --------------------------------------------------------------------
    P  1    0.00000     10.00000     4.94930    0.05071    15.00000
    P  2    0.00000     10.00000     4.94930    0.05071    15.00000
 ====================================================================
 * Total *  0.00000     19.99999     9.89859    0.10142    30.00000

 Normal termination of Gaussian 16 at Mon Nov 18 16:40:07 2024.
