 Gaussian 16, Revision C.01,
 Gaussian 16:  ES64L-G16RevC.01  3-Jul-2019

 -----------------------------------------------------------------
 #RHF/STO-3G int=nobasistransform Symmetry=None 5D 7F Pop=NBO7Read
 -----------------------------------------------------------------

 ----------
 mol108-NBO
 ----------
 Symbolic Z-matrix:
 Charge =  0 Multiplicity = 1

                          Input orientation:
 ---------------------------------------------------------------------
 Center     Atomic      Atomic             Coordinates (Angstroms)
 Number     Number       Type             X           Y           Z
 ---------------------------------------------------------------------
      1          6           0        1.210014   -0.353598    0.000000
      2          6           0        0.000000    0.575951    0.000000
      3          7           0       -1.305351   -0.087478    0.000000
      4          1           0        2.149310    0.208498    0.000000
      5          1           0        1.201796   -0.997760    0.884909
      6          1           0        1.201796   -0.997760   -0.884909
      7          1           0        0.034561    1.230963   -0.876478
      8          1           0        0.034561    1.230963    0.876478
      9          1           0       -1.372326   -0.698340    0.813132
     10          1           0       -1.372326   -0.698340   -0.813132
 ---------------------------------------------------------------------

 SCF Done:  E(RHF) =  -132.614393948     A.U. after   10 cycles

 Alpha  occ. eigenvalues --  -15.30707 -11.07319 -11.04038  -1.12742  -0.94969
 Alpha  occ. eigenvalues --   -0.79341  -0.62918  -0.56077  -0.53301  -0.52198
 Alpha  occ. eigenvalues --   -0.46709  -0.44859  -0.31920
 Alpha virt. eigenvalues --    0.60280   0.61587   0.64507   0.71321   0.72017
 Alpha virt. eigenvalues --    0.73538   0.77213   0.77673   0.79775

 Mulliken charges:
               1
     1  C   -0.183415
     2  C   -0.012930
     3  N   -0.395469
     4  H    0.061874
     5  H    0.053961
     6  H    0.053961
     7  H    0.061232
     8  H    0.061232
     9  H    0.149776
    10  H    0.149776
 Sum of Mulliken charges =  -0.00000

 Dipole moment (field-independent basis, Debye):
    X=              1.1179    Y=             -1.0616    Z=             -0.0000  Tot=              1.5416
 Quadrupole moment (field-independent basis, Debye-Ang):
   XX=            -22.5390   YY=            -18.8431   ZZ=            -18.2883
   XY=              2.1951   XZ=              0.0000   YZ=             -0.0000

 Summary of Natural Population Analysis:

                                     Natural Population
             Natural    ---------------------------------------------
  Atom No    Charge        Core      Valence    Rydberg      Total
 --------------------------------------------------------------------
    C  1   -0.14753      2.00000     4.14753    0.00000     6.14753
    C  2    0.04734      1.99999     3.95267    0.00000     5.95266
    N  3   -0.38750      2.00000     5.38751    0.00000     7.38750
    H  4    0.04711      0.00000     0.95289    0.00000     0.95289
    H  5    0.03894      0.00000     0.96106    0.00000     0.96106
    H  6    0.03894      0.00000     0.96106    0.00000     0.96106
    H  7    0.03559      0.00000     0.96441    0.00000     0.96441
    H  8    0.03559      0.00000     0.96441    0.00000     0.96441
    H  9    0.14577      0.00000     0.85423    0.00000     0.85423
    H 10    0.14577      0.00000     0.85423    0.00000     0.85423
 ====================================================================
 * Total *  0.00000      5.99999    20.00001    0.00000    26.00000

 Normal termination of Gaussian 16 at Mon Nov 18 15:41:26 2024.
