 Gaussian 16, Revision C.01,
 Gaussian 16:  ES64L-G16RevC.01  3-Jul-2019

 -----------------------------------------------------------------
 #RHF/STO-3G int=nobasistransform Symmetry=None 5D 7F Pop=NBO7Read
 -----------------------------------------------------------------

 ---------
 mol62-NBO
 ---------
 Symbolic Z-matrix:
 Charge =  0 Multiplicity = 1

                          Input orientation:
 ---------------------------------------------------------------------
 Center     Atomic      Atomic             Coordinates (Angstroms)
 Number     Number       Type             X           Y           Z
 ---------------------------------------------------------------------
      1         16           0        0.000000    0.000000    1.561117
      2          6           0        0.000000    0.000000    0.000000
      3         16           0        0.000000    0.000000   -1.561117
 ---------------------------------------------------------------------

 SCF Done:  E(RHF) =  -823.721873859     A.U. after    8 cycles

 Alpha  occ. eigenvalues --  -90.73670 -90.73669 -11.07783  -8.64492  -8.64473
 Alpha  occ. eigenvalues --   -6.27699  -6.27674  -6.27320  -6.27320  -6.27300
 Alpha  occ. eigenvalues --   -6.27300  -1.03083  -0.90041  -0.54943  -0.43770
 Alpha  occ. eigenvalues --   -0.41653  -0.41653  -0.23238  -0.23238
 Alpha virt. eigenvalues --    0.23917   0.23917   0.48725   0.83122

 Mulliken charges:
               1
     1  S    0.110215
     2  C   -0.220429
     3  S    0.110215
 Sum of Mulliken charges =   0.00000

 Dipole moment (field-independent basis, Debye):
    X=             -0.0000    Y=              0.0000    Z=             -0.0000  Tot=              0.0000
 Quadrupole moment (field-independent basis, Debye-Ang):
   XX=            -26.2592   YY=            -26.2592   ZZ=            -28.7254
   XY=             -0.0000   XZ=              0.0000   YZ=              0.0000

 Summary of Natural Population Analysis:

                                     Natural Population
             Natural    ---------------------------------------------
  Atom No    Charge        Core      Valence    Rydberg      Total
 --------------------------------------------------------------------
    S  1    0.00706      9.99990     5.99304    0.00000    15.99294
    C  2   -0.01412      2.00000     4.01412    0.00000     6.01412
    S  3    0.00706      9.99990     5.99304    0.00000    15.99294
 ====================================================================
 * Total *  0.00000     21.99980    16.00020    0.00000    38.00000

 Normal termination of Gaussian 16 at Mon Nov 18 15:41:19 2024.
