 Gaussian 16, Revision C.01,
 Gaussian 16:  ES64L-G16RevC.01  3-Jul-2019

 -----------------------------------------------------------------
 #RHF/6-31G* int=nobasistransform Symmetry=None 5D 7F Pop=NBO7Read
 -----------------------------------------------------------------

 ---------
 mol62-NBO
 ---------
 Symbolic Z-matrix:
 Charge =  0 Multiplicity = 1

                          Input orientation:
 ---------------------------------------------------------------------
 Center     Atomic      Atomic             Coordinates (Angstroms)
 Number     Number       Type             X           Y           Z
 ---------------------------------------------------------------------
      1         16           0        0.000000    0.000000    1.561117
      2          6           0        0.000000    0.000000    0.000000
      3         16           0        0.000000    0.000000   -1.561117
 ---------------------------------------------------------------------

 SCF Done:  E(RHF) =  -832.880955447     A.U. after   10 cycles

 Alpha  occ. eigenvalues --  -91.98076 -91.98075 -11.40977  -8.99734  -8.99730
 Alpha  occ. eigenvalues --   -6.67950  -6.67946  -6.67630  -6.67630  -6.67629
 Alpha  occ. eigenvalues --   -6.67629  -1.14901  -1.02443  -0.68052  -0.58323
 Alpha  occ. eigenvalues --   -0.52720  -0.52720  -0.37235  -0.37235
 Alpha virt. eigenvalues --    0.05326   0.05326   0.19737   0.25901   0.33213
 Alpha virt. eigenvalues --    0.45437   0.48819   0.48819   0.52182   0.54499
 Alpha virt. eigenvalues --    0.54499   0.77273   0.82075   0.82075   0.90084

 Mulliken charges:
               1
     1  S    0.018343
     2  C   -0.036686
     3  S    0.018343
 Sum of Mulliken charges =   0.00000

 Dipole moment (field-independent basis, Debye):
    X=              0.0000    Y=             -0.0000    Z=             -0.0000  Tot=              0.0000
 Quadrupole moment (field-independent basis, Debye-Ang):
   XX=            -32.0378   YY=            -32.0378   ZZ=            -30.3344
   XY=              0.0000   XZ=             -0.0000   YZ=             -0.0000

 Summary of Natural Population Analysis:

                                     Natural Population
             Natural    ---------------------------------------------
  Atom No    Charge        Core      Valence    Rydberg      Total
 --------------------------------------------------------------------
    S  1    0.13675      9.99998     5.81373    0.04953    15.86325
    C  2   -0.27351      1.99999     4.24336    0.03015     6.27351
    S  3    0.13675      9.99998     5.81373    0.04953    15.86325
 ====================================================================
 * Total *  0.00000     21.99996    15.87083    0.12921    38.00000

 Normal termination of Gaussian 16 at Mon Nov 18 16:40:42 2024.
