 Gaussian 16, Revision C.01,
 Gaussian 16:  ES64L-G16RevC.01  3-Jul-2019

 -----------------------
 #RHF/4-31G Pop=NBO7Read
 -----------------------

 -----
 NBO-a
 -----
 Symbolic Z-matrix:
 Charge =  0 Multiplicity = 1

                         Standard orientation:
 ---------------------------------------------------------------------
 Center     Atomic      Atomic             Coordinates (Angstroms)
 Number     Number       Type             X           Y           Z
 ---------------------------------------------------------------------
      1          6           0       -0.058292    0.712886   -0.000000
      2          1           0       -0.587597    1.069752    0.881977
      3          1           0        0.942410    1.152799    0.000000
      4          1           0       -0.587597    1.069752   -0.881977
      5          7           0       -0.058292   -0.772674   -0.000000
      6          1           0        0.495291   -1.080450   -0.816502
      7          1           0        0.495291   -1.080450    0.816502
 ---------------------------------------------------------------------

 SCF Done:  E(RHF) =  -95.0649841993     A.U. after   11 cycles

 The electronic state is 1-A'.
 Alpha  occ. eigenvalues --  -15.51855 -11.22493  -1.16845  -0.89885  -0.65220
 Alpha  occ. eigenvalues --   -0.59902  -0.54615  -0.51570  -0.38700
 Alpha virt. eigenvalues --    0.22207   0.28350   0.30206   0.32409   0.33427
 Alpha virt. eigenvalues --    0.41834   0.85021   0.87520   0.88562   1.07035
 Alpha virt. eigenvalues --    1.08285   1.13604   1.19162   1.23913   1.26926

 Mulliken charges:
               1
     1  C   -0.276440
     2  H    0.168014
     3  H    0.129027
     4  H    0.168014
     5  N   -0.781840
     6  H    0.296612
     7  H    0.296612
 Sum of Mulliken charges =   0.00000

 Dipole moment (field-independent basis, Debye):
    X=              1.8868    Y=              0.8286    Z=              0.0000  Tot=              2.0607
 Quadrupole moment (field-independent basis, Debye-Ang):
   XX=            -14.8274   YY=            -14.6954   ZZ=            -12.6786
   XY=             -2.6625   XZ=              0.0000   YZ=             -0.0000

 Summary of Natural Population Analysis:

                                     Natural Population
             Natural    ---------------------------------------------
  Atom No    Charge        Core      Valence    Rydberg      Total
 --------------------------------------------------------------------
    C  1   -0.48986      1.99994     4.48550    0.00441     6.48986
    H  2    0.22981      0.00000     0.76897    0.00122     0.77019
    H  3    0.19794      0.00000     0.80021    0.00185     0.80206
    H  4    0.22981      0.00000     0.76897    0.00122     0.77019
    N  5   -0.92093      1.99994     5.91394    0.00706     7.92093
    H  6    0.37662      0.00000     0.62172    0.00167     0.62338
    H  7    0.37662      0.00000     0.62172    0.00167     0.62338
 ====================================================================
 * Total *  0.00000      3.99988    13.98103    0.01909    18.00000

 Normal termination of Gaussian 16 at Wed Jul 24 13:56:59 2024.
