 Gaussian 16, Revision C.01,
 Gaussian 16:  ES64L-G16RevC.01  3-Jul-2019

 -----------------------------------------------------------------
 #RHF/6-31G* int=nobasistransform Symmetry=None 5D 7F Pop=NBO7Read
 -----------------------------------------------------------------

 ---------
 mol54-NBO
 ---------
 Symbolic Z-matrix:
 Charge =  0 Multiplicity = 1

                          Input orientation:
 ---------------------------------------------------------------------
 Center     Atomic      Atomic             Coordinates (Angstroms)
 Number     Number       Type             X           Y           Z
 ---------------------------------------------------------------------
      1         16           0        0.000000    0.000000    0.370268
      2          8           0        0.000000    1.277617   -0.370268
      3          8           0        0.000000   -1.277617   -0.370268
 ---------------------------------------------------------------------

 SCF Done:  E(RHF) =  -547.155289560     A.U. after   12 cycles

 Alpha  occ. eigenvalues --  -92.19373 -20.63487 -20.63485  -9.17965  -6.86156
 Alpha  occ. eigenvalues --   -6.86138  -6.85879  -1.47849  -1.38143  -0.87869
 Alpha  occ. eigenvalues --   -0.68729  -0.67848  -0.64735  -0.53073  -0.50151
 Alpha  occ. eigenvalues --   -0.48996
 Alpha virt. eigenvalues --    0.00198   0.20511   0.21147   0.38263   0.44015
 Alpha virt. eigenvalues --    0.51194   0.59916   0.90051   0.90229   0.90979
 Alpha virt. eigenvalues --    1.03568   1.05661   1.20443   1.21540   1.27129

 Mulliken charges:
               1
     1  S    1.187802
     2  O   -0.593901
     3  O   -0.593901
 Sum of Mulliken charges =  -0.00000

 Dipole moment (field-independent basis, Debye):
    X=             -0.0000    Y=              0.0000    Z=              2.3575  Tot=              2.3575
 Quadrupole moment (field-independent basis, Debye-Ang):
   XX=            -20.5358   YY=            -28.4462   ZZ=            -22.6663
   XY=             -0.0000   XZ=             -0.0000   YZ=             -0.0000

 Summary of Natural Population Analysis:

                                     Natural Population
             Natural    ---------------------------------------------
  Atom No    Charge        Core      Valence    Rydberg      Total
 --------------------------------------------------------------------
    S  1    1.79071      9.99998     4.03708    0.17224    14.20929
    O  2   -0.89535      1.99999     6.86575    0.02961     8.89535
    O  3   -0.89535      1.99999     6.86575    0.02961     8.89535
 ====================================================================
 * Total *  0.00000     13.99997    17.76858    0.23146    32.00000

 Normal termination of Gaussian 16 at Mon Nov 18 16:40:07 2024.
