 Gaussian 16, Revision C.01,
 Gaussian 16:  ES64L-G16RevC.01  3-Jul-2019

 -----------------------------------------------------------------
 #RHF/6-31G* int=nobasistransform Symmetry=None 5D 7F Pop=NBO7Read
 -----------------------------------------------------------------

 ---------
 mol85-NBO
 ---------
 Symbolic Z-matrix:
 Charge =  0 Multiplicity = 1

                          Input orientation:
 ---------------------------------------------------------------------
 Center     Atomic      Atomic             Coordinates (Angstroms)
 Number     Number       Type             X           Y           Z
 ---------------------------------------------------------------------
      1          6           0        0.000000    1.131343    0.310424
      2          6           0        0.000000   -1.131343    0.310424
      3          6           0        0.747952    0.000000   -0.311812
      4          6           0       -0.747952    0.000000   -0.311812
      5          1           0        0.000000    1.237033    1.397617
      6          1           0        0.000000    2.077375   -0.227668
      7          1           0        0.000000   -1.237033    1.397617
      8          1           0        0.000000   -2.077375   -0.227668
      9          1           0        1.414410    0.000000   -1.161626
     10          1           0       -1.414410    0.000000   -1.161626
 ---------------------------------------------------------------------

 SCF Done:  E(RHF) =  -154.870290872     A.U. after   11 cycles

 Alpha  occ. eigenvalues --  -11.23616 -11.23609 -11.23125 -11.23063  -1.21418
 Alpha  occ. eigenvalues --   -0.92730  -0.78300  -0.78146  -0.69041  -0.58591
 Alpha  occ. eigenvalues --   -0.57745  -0.51181  -0.45885  -0.43396  -0.34722
 Alpha virt. eigenvalues --    0.24852   0.26254   0.27817   0.29799   0.31043
 Alpha virt. eigenvalues --    0.34025   0.35208   0.37769   0.42145   0.42245
 Alpha virt. eigenvalues --    0.44070   0.69788   0.73094   0.73717   0.77833

 Mulliken charges:
               1
     1  C   -0.351276
     2  C   -0.351276
     3  C   -0.198798
     4  C   -0.198798
     5  H    0.169599
     6  H    0.178755
     7  H    0.169599
     8  H    0.178755
     9  H    0.201721
    10  H    0.201721
 Sum of Mulliken charges =   0.00000

 Dipole moment (field-independent basis, Debye):
    X=             -0.0000    Y=              0.0000    Z=             -0.7951  Tot=              0.7951
 Quadrupole moment (field-independent basis, Debye-Ang):
   XX=            -26.8914   YY=            -24.0264   ZZ=            -24.0007
   XY=              0.0000   XZ=             -0.0000   YZ=              0.0000

 Summary of Natural Population Analysis:

                                     Natural Population
             Natural    ---------------------------------------------
  Atom No    Charge        Core      Valence    Rydberg      Total
 --------------------------------------------------------------------
    C  1   -0.42116      1.99999     4.39988    0.02129     6.42116
    C  2   -0.42116      1.99999     4.39988    0.02129     6.42116
    C  3   -0.25531      1.99999     4.23305    0.02227     6.25531
    C  4   -0.25531      1.99999     4.23305    0.02227     6.25531
    H  5    0.21088      0.00000     0.78714    0.00197     0.78912
    H  6    0.22560      0.00000     0.77347    0.00093     0.77440
    H  7    0.21088      0.00000     0.78714    0.00197     0.78912
    H  8    0.22560      0.00000     0.77347    0.00093     0.77440
    H  9    0.23998      0.00000     0.75940    0.00062     0.76002
    H 10    0.23998      0.00000     0.75940    0.00062     0.76002
 ====================================================================
 * Total *  0.00000      7.99996    21.90586    0.09418    30.00000

 Normal termination of Gaussian 16 at Mon Nov 18 16:40:43 2024.
