 Gaussian 16, Revision C.01,
 Gaussian 16:  ES64L-G16RevC.01  3-Jul-2019

 ------------------------
 #RHF/6-31G* Pop=NBO7Read
 ------------------------

 -----
 NBO-a
 -----
 Symbolic Z-matrix:
 Charge =  0 Multiplicity = 1

                         Standard orientation:
 ---------------------------------------------------------------------
 Center     Atomic      Atomic             Coordinates (Angstroms)
 Number     Number       Type             X           Y           Z
 ---------------------------------------------------------------------
      1          6           0        0.000000    0.398109    0.000000
      2          3           0        0.000000   -1.610325   -0.000000
      3          1           0        0.999596    0.814106    0.000000
      4          1           0       -0.499798    0.814106    0.865676
      5          1           0       -0.499798    0.814106   -0.865676
 ---------------------------------------------------------------------

 SCF Done:  E(RHF) =  -47.0153141573     A.U. after   11 cycles

 The electronic state is 1-A'.
 Alpha  occ. eigenvalues --  -11.10785  -2.42270  -0.82455  -0.45365  -0.45365
 Alpha  occ. eigenvalues --   -0.27708
 Alpha virt. eigenvalues --    0.01160   0.06864   0.06864   0.11456   0.20011
 Alpha virt. eigenvalues --    0.22522   0.22522   0.39619   0.40578   0.40578
 Alpha virt. eigenvalues --    0.43573   0.59330   0.59330   0.62096   0.62096

 Mulliken charges:
               1
     1  C   -0.784503
     2  Li   0.426796
     3  H    0.119236
     4  H    0.119235
     5  H    0.119235
 Sum of Mulliken charges =  -0.00000

 Dipole moment (field-independent basis, Debye):
    X=              0.0000    Y=             -5.7049    Z=              0.0000  Tot=              5.7049
 Quadrupole moment (field-independent basis, Debye-Ang):
   XX=            -11.4797   YY=             -0.7478   ZZ=            -11.4797
   XY=              0.0000   XZ=              0.0000   YZ=              0.0000

 Summary of Natural Population Analysis:

                                     Natural Population
             Natural    ---------------------------------------------
  Atom No    Charge        Core      Valence    Rydberg      Total
 --------------------------------------------------------------------
    C  1   -1.39028      1.99999     5.35584    0.03444     7.39028
   Li  2    0.81592      1.99991     0.16361    0.02056     2.18408
    H  3    0.19146      0.00000     0.80789    0.00066     0.80854
    H  4    0.19146      0.00000     0.80789    0.00066     0.80854
    H  5    0.19146      0.00000     0.80789    0.00066     0.80854
 ====================================================================
 * Total *  0.00000      3.99990     7.94312    0.05697    12.00000

 Normal termination of Gaussian 16 at Wed Jul 24 12:08:05 2024.
