 Gaussian 16, Revision C.01,
 Gaussian 16:  ES64L-G16RevC.01  3-Jul-2019

 -----------------------
 #RHF/4-31G Pop=NBO7Read
 -----------------------

 -----
 NBO-a
 -----
 Symbolic Z-matrix:
 Charge =  0 Multiplicity = 1

                         Standard orientation:
 ---------------------------------------------------------------------
 Center     Atomic      Atomic             Coordinates (Angstroms)
 Number     Number       Type             X           Y           Z
 ---------------------------------------------------------------------
      1          4           0        0.000000    0.000000    0.731519
      2          3           0        0.000000    0.000000   -1.652391
      3          1           0        0.000000    0.000000    2.031099
 ---------------------------------------------------------------------

 SCF Done:  E(RHF) =  -22.5951954356     A.U. after   10 cycles

 The electronic state is 1-SG.
 Alpha  occ. eigenvalues --   -4.62808  -2.43761  -0.43313  -0.23723
 Alpha virt. eigenvalues --    0.02501   0.04929   0.04929   0.16037   0.16380
 Alpha virt. eigenvalues --    0.16380   0.24970   0.25162   0.25162   0.31507
 Alpha virt. eigenvalues --    0.58847   0.65421   0.65421   0.68268   1.18709

 Mulliken charges:
               1
     1  Be   0.389890
     2  Li  -0.083802
     3  H   -0.306087
 Sum of Mulliken charges =  -0.00000

 Dipole moment (field-independent basis, Debye):
    X=              0.0000    Y=              0.0000    Z=             -4.8553  Tot=              4.8553
 Quadrupole moment (field-independent basis, Debye-Ang):
   XX=            -12.3302   YY=            -12.3302   ZZ=             -6.2437
   XY=              0.0000   XZ=              0.0000   YZ=              0.0000

 Summary of Natural Population Analysis:

                                     Natural Population
             Natural    ---------------------------------------------
  Atom No    Charge        Core      Valence    Rydberg      Total
 --------------------------------------------------------------------
   Be  1    0.58218      2.00000     1.25552    0.16230     3.41782
   Li  2    0.15224      1.99997     0.75905    0.08873     2.84776
    H  3   -0.73443      0.00000     1.71956    0.01486     1.73443
 ====================================================================
 * Total *  0.00000      3.99997     3.73414    0.26590     8.00000

 Normal termination of Gaussian 16 at Wed Jul 24 13:57:01 2024.
