 Gaussian 16, Revision C.01,
 Gaussian 16:  ES64L-G16RevC.01  3-Jul-2019

 -----------------------------------------------------------------
 #RHF/STO-3G int=nobasistransform Symmetry=None 5D 7F Pop=NBO7Read
 -----------------------------------------------------------------

 ----------
 mol113-NBO
 ----------
 Symbolic Z-matrix:
 Charge =  0 Multiplicity = 1

                          Input orientation:
 ---------------------------------------------------------------------
 Center     Atomic      Atomic             Coordinates (Angstroms)
 Number     Number       Type             X           Y           Z
 ---------------------------------------------------------------------
      1          6           0        1.168181   -0.400382    0.000000
      2          6           0        0.000000    0.559462    0.000000
      3          8           0       -1.190083   -0.227669    0.000000
      4          1           0       -1.946623    0.381525    0.000000
      5          1           0        0.042557    1.207508    0.886933
      6          1           0        0.042557    1.207508   -0.886933
      7          1           0        2.115891    0.144800    0.000000
      8          1           0        1.128599   -1.037234    0.885881
      9          1           0        1.128599   -1.037234   -0.885881
 ---------------------------------------------------------------------

 SCF Done:  E(RHF) =  -152.130784521     A.U. after   10 cycles

 Alpha  occ. eigenvalues --  -20.24814 -11.09005 -11.03848  -1.27953  -0.96846
 Alpha  occ. eigenvalues --   -0.79179  -0.62127  -0.60451  -0.51160  -0.48142
 Alpha  occ. eigenvalues --   -0.47712  -0.40443  -0.35043
 Alpha virt. eigenvalues --    0.56083   0.63855   0.66536   0.70401   0.71985
 Alpha virt. eigenvalues --    0.76489   0.77988   0.78013

 Mulliken charges:
               1
     1  C   -0.177462
     2  C    0.015962
     3  O   -0.303842
     4  H    0.179464
     5  H    0.046154
     6  H    0.046154
     7  H    0.060201
     8  H    0.066684
     9  H    0.066684
 Sum of Mulliken charges =   0.00000

 Dipole moment (field-independent basis, Debye):
    X=              0.0672    Y=              1.4039    Z=              0.0000  Tot=              1.4055
 Quadrupole moment (field-independent basis, Debye-Ang):
   XX=            -17.0177   YY=            -18.4907   ZZ=            -18.4634
   XY=             -1.8850   XZ=              0.0000   YZ=              0.0000

 Summary of Natural Population Analysis:

                                     Natural Population
             Natural    ---------------------------------------------
  Atom No    Charge        Core      Valence    Rydberg      Total
 --------------------------------------------------------------------
    C  1   -0.14842      2.00000     4.14842    0.00000     6.14842
    C  2    0.09968      1.99999     3.90033    0.00000     5.90032
    O  3   -0.32389      2.00000     6.32389    0.00000     8.32389
    H  4    0.19334      0.00000     0.80666    0.00000     0.80666
    H  5    0.01571      0.00000     0.98429    0.00000     0.98429
    H  6    0.01571      0.00000     0.98429    0.00000     0.98429
    H  7    0.04601      0.00000     0.95399    0.00000     0.95399
    H  8    0.05093      0.00000     0.94907    0.00000     0.94907
    H  9    0.05093      0.00000     0.94907    0.00000     0.94907
 ====================================================================
 * Total *  0.00000      5.99998    20.00002    0.00000    26.00000

 Normal termination of Gaussian 16 at Mon Nov 18 15:41:27 2024.
