 Gaussian 16, Revision C.01,
 Gaussian 16:  ES64L-G16RevC.01  3-Jul-2019

 -----------------------------------------------------------------
 #RHF/STO-3G int=nobasistransform Symmetry=None 5D 7F Pop=NBO7Read
 -----------------------------------------------------------------

 ---------
 mol92-NBO
 ---------
 Symbolic Z-matrix:
 Charge =  0 Multiplicity = 1

                          Input orientation:
 ---------------------------------------------------------------------
 Center     Atomic      Atomic             Coordinates (Angstroms)
 Number     Number       Type             X           Y           Z
 ---------------------------------------------------------------------
      1          6           0        0.000000    1.395248    0.000000
      2          6           0        1.208320    0.697624    0.000000
      3          6           0        1.208320   -0.697624    0.000000
      4          6           0        0.000000   -1.395248    0.000000
      5          6           0       -1.208320   -0.697624    0.000000
      6          6           0       -1.208320    0.697624    0.000000
      7          1           0        0.000000    2.482360    0.000000
      8          1           0        2.149787    1.241180    0.000000
      9          1           0        2.149787   -1.241180    0.000000
     10          1           0        0.000000   -2.482360    0.000000
     11          1           0       -2.149787   -1.241180    0.000000
     12          1           0       -2.149787    1.241180    0.000000
 ---------------------------------------------------------------------

 SCF Done:  E(RHF) =  -227.890743280     A.U. after    7 cycles

 Alpha  occ. eigenvalues --  -11.02913 -11.02913 -11.02911 -11.02878 -11.02878
 Alpha  occ. eigenvalues --  -11.02863  -1.08951  -0.95417  -0.95417  -0.76615
 Alpha  occ. eigenvalues --   -0.76615  -0.66113  -0.59336  -0.55291  -0.53338
 Alpha  occ. eigenvalues --   -0.53337  -0.45583  -0.43236  -0.43236  -0.27964
 Alpha  occ. eigenvalues --   -0.27964
 Alpha virt. eigenvalues --    0.26871   0.26871   0.50348   0.57681   0.64678
 Alpha virt. eigenvalues --    0.64678   0.71813   0.73278   0.73278   0.88262
 Alpha virt. eigenvalues --    0.88262   0.89592   0.89592   1.08630   1.14882

 Mulliken charges:
               1
     1  C   -0.062055
     2  C   -0.062055
     3  C   -0.062055
     4  C   -0.062055
     5  C   -0.062055
     6  C   -0.062055
     7  H    0.062055
     8  H    0.062055
     9  H    0.062055
    10  H    0.062055
    11  H    0.062055
    12  H    0.062055
 Sum of Mulliken charges =  -0.00000

 Dipole moment (field-independent basis, Debye):
    X=             -0.0000    Y=             -0.0000    Z=              0.0000  Tot=              0.0000
 Quadrupole moment (field-independent basis, Debye-Ang):
   XX=            -31.1888   YY=            -31.1888   ZZ=            -35.1079
   XY=             -0.0000   XZ=              0.0000   YZ=              0.0000

 Summary of Natural Population Analysis:

                                     Natural Population
             Natural    ---------------------------------------------
  Atom No    Charge        Core      Valence    Rydberg      Total
 --------------------------------------------------------------------
    C  1   -0.03708      2.00000     4.03709    0.00000     6.03708
    C  2   -0.03708      2.00000     4.03709    0.00000     6.03708
    C  3   -0.03708      2.00000     4.03709    0.00000     6.03708
    C  4   -0.03708      2.00000     4.03709    0.00000     6.03708
    C  5   -0.03708      2.00000     4.03709    0.00000     6.03708
    C  6   -0.03708      2.00000     4.03709    0.00000     6.03708
    H  7    0.03708      0.00000     0.96292    0.00000     0.96292
    H  8    0.03708      0.00000     0.96292    0.00000     0.96292
    H  9    0.03708      0.00000     0.96292    0.00000     0.96292
    H 10    0.03708      0.00000     0.96292    0.00000     0.96292
    H 11    0.03708      0.00000     0.96292    0.00000     0.96292
    H 12    0.03708      0.00000     0.96292    0.00000     0.96292
 ====================================================================
 * Total *  0.00000     11.99999    30.00001    0.00000    42.00000

 Normal termination of Gaussian 16 at Mon Nov 18 15:41:53 2024.
