 Gaussian 16, Revision C.01,
 Gaussian 16:  ES64L-G16RevC.01  3-Jul-2019

 -----------------------
 #RHF/4-31G Pop=NBO7Read
 -----------------------

 -----
 NBO-a
 -----
 Symbolic Z-matrix:
 Charge =  0 Multiplicity = 1

                         Standard orientation:
 ---------------------------------------------------------------------
 Center     Atomic      Atomic             Coordinates (Angstroms)
 Number     Number       Type             X           Y           Z
 ---------------------------------------------------------------------
      1          6           0        0.000000   -0.000000    0.609650
      2          4           0       -0.000000    0.000000   -1.080912
      3          1           0        0.815158   -0.591367    1.012572
      4          1           0       -0.919718   -0.410264    1.012572
      5          1           0        0.104560    1.001631    1.012572
      6          1           0       -0.000000    0.000000   -2.371966
 ---------------------------------------------------------------------

 SCF Done:  E(RHF) =  -54.7540246433     A.U. after    9 cycles

 The electronic state is 1-A.
 Alpha  occ. eigenvalues --  -11.15378  -4.64384  -0.91357  -0.52936  -0.52936
 Alpha  occ. eigenvalues --   -0.47148  -0.42350
 Alpha virt. eigenvalues --    0.13072   0.13072   0.22239   0.32057   0.32981
 Alpha virt. eigenvalues --    0.32981   0.46296   0.62073   0.62073   0.66125
 Alpha virt. eigenvalues --    0.85759   0.91642   0.91642   1.07960   1.24413

 Mulliken charges:
               1
     1  C   -0.845582
     2  Be   0.546145
     3  H    0.151486
     4  H    0.151486
     5  H    0.151486
     6  H   -0.155021
 Sum of Mulliken charges =  -0.00000

 Dipole moment (field-independent basis, Debye):
    X=              0.0000    Y=             -0.0000    Z=              0.4072  Tot=              0.4072
 Quadrupole moment (field-independent basis, Debye-Ang):
   XX=            -12.7620   YY=            -12.7620   ZZ=            -19.0136
   XY=             -0.0000   XZ=              0.0000   YZ=             -0.0000

 Summary of Natural Population Analysis:

                                     Natural Population
             Natural    ---------------------------------------------
  Atom No    Charge        Core      Valence    Rydberg      Total
 --------------------------------------------------------------------
    C  1   -1.47475      1.99992     5.45642    0.01840     7.47475
   Be  2    1.33313      2.00000     0.57088    0.09599     2.66687
    H  3    0.24450      0.00000     0.75454    0.00096     0.75550
    H  4    0.24450      0.00000     0.75454    0.00096     0.75550
    H  5    0.24450      0.00000     0.75454    0.00096     0.75550
    H  6   -0.59189      0.00000     1.59043    0.00146     1.59189
 ====================================================================
 * Total *  0.00000      3.99992     9.88134    0.11874    14.00000

 Normal termination of Gaussian 16 at Wed Jul 24 13:56:58 2024.
