 Gaussian 16, Revision C.01,
 Gaussian 16:  ES64L-G16RevC.01  3-Jul-2019

 -----------------------------------------------------------------
 #RHF/STO-3G int=nobasistransform Symmetry=None 5D 7F Pop=NBO7Read
 -----------------------------------------------------------------

 ---------
 mol13-NBO
 ---------
 Symbolic Z-matrix:
 Charge =  0 Multiplicity = 1

                          Input orientation:
 ---------------------------------------------------------------------
 Center     Atomic      Atomic             Coordinates (Angstroms)
 Number     Number       Type             X           Y           Z
 ---------------------------------------------------------------------
      1         14           0        0.000000    0.000000    0.131272
      2          1           0        0.000000    1.096938   -0.918905
      3          1           0        0.000000   -1.096938   -0.918905
 ---------------------------------------------------------------------

 SCF Done:  E(RHF) =  -286.663584886     A.U. after    7 cycles

 Alpha  occ. eigenvalues --  -67.89411  -5.89516  -3.91320  -3.91196  -3.91086
 Alpha  occ. eigenvalues --   -0.60451  -0.36474  -0.23107
 Alpha virt. eigenvalues --    0.22018   0.50230   0.60283

 Mulliken charges:
               1
     1  Si   0.450147
     2  H   -0.225073
     3  H   -0.225073
 Sum of Mulliken charges =   0.00000

 Dipole moment (field-independent basis, Debye):
    X=             -0.0000    Y=             -0.0000    Z=              0.1430  Tot=              0.1430
 Quadrupole moment (field-independent basis, Debye-Ang):
   XX=             -9.6469   YY=            -14.0321   ZZ=            -14.7754
   XY=              0.0000   XZ=             -0.0000   YZ=              0.0000

 Summary of Natural Population Analysis:

                                     Natural Population
             Natural    ---------------------------------------------
  Atom No    Charge        Core      Valence    Rydberg      Total
 --------------------------------------------------------------------
   Si  1    0.64912      9.99967     3.35120    0.00000    13.35088
    H  2   -0.32456      0.00000     1.32456    0.00000     1.32456
    H  3   -0.32456      0.00000     1.32456    0.00000     1.32456
 ====================================================================
 * Total *  0.00000      9.99967     6.00033    0.00000    16.00000

 Normal termination of Gaussian 16 at Mon Nov 18 15:41:21 2024.
