 Gaussian 16, Revision C.01,
 Gaussian 16:  ES64L-G16RevC.01  3-Jul-2019

 -----------------------
 #RHF/4-31G Pop=NBO7Read
 -----------------------

 -----
 NBO-a
 -----
 Symbolic Z-matrix:
 Charge =  0 Multiplicity = 1

                         Standard orientation:
 ---------------------------------------------------------------------
 Center     Atomic      Atomic             Coordinates (Angstroms)
 Number     Number       Type             X           Y           Z
 ---------------------------------------------------------------------
      1          6           0        0.395918    0.003064    0.041605
      2          3           0       -1.601462   -0.012393   -0.168288
      3          1           0        0.798015    1.005111    0.122013
      4          1           0        0.905585   -0.460297   -0.793729
      5          1           0        0.725276   -0.526019    0.926952
 ---------------------------------------------------------------------

 SCF Done:  E(RHF) =  -46.9596032863     A.U. after   11 cycles

 The electronic state is 1-A.
 Alpha  occ. eigenvalues --  -11.08780  -2.41968  -0.82839  -0.45214  -0.45214
 Alpha  occ. eigenvalues --   -0.27608
 Alpha virt. eigenvalues --    0.01857   0.07691   0.07691   0.13248   0.25496
 Alpha virt. eigenvalues --    0.25496   0.26129   0.40444   0.41366   0.41366
 Alpha virt. eigenvalues --    0.52246   0.95200   0.95200   1.12996   1.32120

 Mulliken charges:
               1
     1  C   -0.754435
     2  Li   0.459836
     3  H    0.098200
     4  H    0.098200
     5  H    0.098200
 Sum of Mulliken charges =   0.00000

 Dipole moment (field-independent basis, Debye):
    X=             -5.4991    Y=             -0.0426    Z=             -0.5779  Tot=              5.5295
 Quadrupole moment (field-independent basis, Debye-Ang):
   XX=             -0.7343   YY=            -11.5129   ZZ=            -11.3945
   XY=              0.0834   XZ=              1.1327   YZ=              0.0088

 Summary of Natural Population Analysis:

                                     Natural Population
             Natural    ---------------------------------------------
  Atom No    Charge        Core      Valence    Rydberg      Total
 --------------------------------------------------------------------
    C  1   -1.40013      1.99993     5.37857    0.02163     7.40013
   Li  2    0.80270      1.99991     0.17210    0.02529     2.19730
    H  3    0.19914      0.00000     0.79966    0.00119     0.80086
    H  4    0.19914      0.00000     0.79966    0.00119     0.80086
    H  5    0.19914      0.00000     0.79966    0.00119     0.80086
 ====================================================================
 * Total *  0.00000      3.99984     7.94967    0.05050    12.00000

 Normal termination of Gaussian 16 at Wed Jul 24 13:56:58 2024.
