 Gaussian 16, Revision C.01,
 Gaussian 16:  ES64L-G16RevC.01  3-Jul-2019

 -----------------------------------------------------------------
 #RHF/6-31G* int=nobasistransform Symmetry=None 5D 7F Pop=NBO7Read
 -----------------------------------------------------------------

 ----------
 mol108-NBO
 ----------
 Symbolic Z-matrix:
 Charge =  0 Multiplicity = 1

                          Input orientation:
 ---------------------------------------------------------------------
 Center     Atomic      Atomic             Coordinates (Angstroms)
 Number     Number       Type             X           Y           Z
 ---------------------------------------------------------------------
      1          6           0        1.210014   -0.353598    0.000000
      2          6           0        0.000000    0.575951    0.000000
      3          7           0       -1.305351   -0.087478    0.000000
      4          1           0        2.149310    0.208498    0.000000
      5          1           0        1.201796   -0.997760    0.884909
      6          1           0        1.201796   -0.997760   -0.884909
      7          1           0        0.034561    1.230963   -0.876478
      8          1           0        0.034561    1.230963    0.876478
      9          1           0       -1.372326   -0.698340    0.813132
     10          1           0       -1.372326   -0.698340   -0.813132
 ---------------------------------------------------------------------

 SCF Done:  E(RHF) =  -134.245905020     A.U. after   12 cycles

 Alpha  occ. eigenvalues --  -15.53561 -11.24316 -11.21205  -1.17320  -0.98660
 Alpha  occ. eigenvalues --   -0.82839  -0.66897  -0.59513  -0.56838  -0.56444
 Alpha  occ. eigenvalues --   -0.50459  -0.48156  -0.38552
 Alpha virt. eigenvalues --    0.22091   0.28014   0.28411   0.30102   0.32010
 Alpha virt. eigenvalues --    0.33822   0.34646   0.40598   0.45536   0.74084
 Alpha virt. eigenvalues --    0.75536   0.77563   0.80254   0.85767   0.93697

 Mulliken charges:
               1
     1  C   -0.497904
     2  C   -0.127641
     3  N   -0.845040
     4  H    0.163714
     5  H    0.155143
     6  H    0.155143
     7  H    0.166558
     8  H    0.166558
     9  H    0.331734
    10  H    0.331734
 Sum of Mulliken charges =  -0.00000

 Dipole moment (field-independent basis, Debye):
    X=              1.1487    Y=             -1.0828    Z=              0.0000  Tot=              1.5786
 Quadrupole moment (field-independent basis, Debye-Ang):
   XX=            -24.5699   YY=            -20.2628   ZZ=            -19.1697
   XY=              2.7530   XZ=             -0.0000   YZ=             -0.0000

 Summary of Natural Population Analysis:

                                     Natural Population
             Natural    ---------------------------------------------
  Atom No    Charge        Core      Valence    Rydberg      Total
 --------------------------------------------------------------------
    C  1   -0.66037      1.99999     4.64812    0.01226     6.66037
    C  2   -0.21227      1.99999     4.19223    0.02006     6.21227
    N  3   -0.91745      1.99999     5.89770    0.01976     7.91745
    H  4    0.21905      0.00000     0.77987    0.00108     0.78095
    H  5    0.20870      0.00000     0.78998    0.00132     0.79130
    H  6    0.20870      0.00000     0.78998    0.00132     0.79130
    H  7    0.20851      0.00000     0.78977    0.00173     0.79149
    H  8    0.20851      0.00000     0.78977    0.00173     0.79149
    H  9    0.36832      0.00000     0.62995    0.00173     0.63168
    H 10    0.36832      0.00000     0.62995    0.00173     0.63168
 ====================================================================
 * Total *  0.00000      5.99998    19.93731    0.06271    26.00000

 Normal termination of Gaussian 16 at Mon Nov 18 16:41:10 2024.
