 Gaussian 16, Revision C.01,
 Gaussian 16:  ES64L-G16RevC.01  3-Jul-2019

 -----------------------------------------------------------------
 #RHF/6-31G* int=nobasistransform Symmetry=None 5D 7F Pop=NBO7Read
 -----------------------------------------------------------------

 ---------
 mol80-NBO
 ---------
 Symbolic Z-matrix:
 Charge =  0 Multiplicity = 1

                          Input orientation:
 ---------------------------------------------------------------------
 Center     Atomic      Atomic             Coordinates (Angstroms)
 Number     Number       Type             X           Y           Z
 ---------------------------------------------------------------------
      1          6           0        0.000000    0.866998    0.000000
      2          6           0        0.750842   -0.433499    0.000000
      3          6           0       -0.750842   -0.433499    0.000000
      4          1           0        0.000000    1.455762    0.910526
      5          1           0        0.000000    1.455762   -0.910526
      6          1           0        1.260727   -0.727881   -0.910526
      7          1           0        1.260727   -0.727881    0.910526
      8          1           0       -1.260727   -0.727881    0.910526
      9          1           0       -1.260727   -0.727881   -0.910526
 ---------------------------------------------------------------------

 SCF Done:  E(RHF) =  -117.058013946     A.U. after    9 cycles

 Alpha  occ. eigenvalues --  -11.21923 -11.21825 -11.21825  -1.13062  -0.81488
 Alpha  occ. eigenvalues --   -0.81488  -0.66491  -0.62570  -0.50923  -0.50923
 Alpha  occ. eigenvalues --   -0.41670  -0.41670
 Alpha virt. eigenvalues --    0.24477   0.25709   0.30444   0.30444   0.32760
 Alpha virt. eigenvalues --    0.38370   0.38370   0.42906   0.42906   0.66356
 Alpha virt. eigenvalues --    0.74978   0.76525   0.76525   0.91896   0.91896

 Mulliken charges:
               1
     1  C   -0.363407
     2  C   -0.363407
     3  C   -0.363407
     4  H    0.181703
     5  H    0.181703
     6  H    0.181703
     7  H    0.181703
     8  H    0.181703
     9  H    0.181703
 Sum of Mulliken charges =  -0.00000

 Dipole moment (field-independent basis, Debye):
    X=              0.0000    Y=             -0.0000    Z=             -0.0000  Tot=              0.0000
 Quadrupole moment (field-independent basis, Debye-Ang):
   XX=            -20.6300   YY=            -20.6300   ZZ=            -18.4528
   XY=              0.0000   XZ=              0.0000   YZ=             -0.0000

 Summary of Natural Population Analysis:

                                     Natural Population
             Natural    ---------------------------------------------
  Atom No    Charge        Core      Valence    Rydberg      Total
 --------------------------------------------------------------------
    C  1   -0.45040      1.99999     4.43301    0.01740     6.45040
    C  2   -0.45040      1.99999     4.43301    0.01740     6.45040
    C  3   -0.45040      1.99999     4.43301    0.01740     6.45040
    H  4    0.22520      0.00000     0.77409    0.00071     0.77480
    H  5    0.22520      0.00000     0.77409    0.00071     0.77480
    H  6    0.22520      0.00000     0.77409    0.00071     0.77480
    H  7    0.22520      0.00000     0.77409    0.00071     0.77480
    H  8    0.22520      0.00000     0.77409    0.00071     0.77480
    H  9    0.22520      0.00000     0.77409    0.00071     0.77480
 ====================================================================
 * Total *  0.00000      5.99998    17.94358    0.05645    24.00000

 Normal termination of Gaussian 16 at Mon Nov 18 16:40:43 2024.
