 Gaussian 16, Revision C.01,
 Gaussian 16:  ES64L-G16RevC.01  3-Jul-2019

 -----------------------
 #RHF/4-31G Pop=NBO7Read
 -----------------------

 -----
 NBO-a
 -----
 Symbolic Z-matrix:
 Charge =  0 Multiplicity = 1

                         Standard orientation:
 ---------------------------------------------------------------------
 Center     Atomic      Atomic             Coordinates (Angstroms)
 Number     Number       Type             X           Y           Z
 ---------------------------------------------------------------------
      1          6           0        0.666681   -0.016874   -0.000000
      2          8           0       -0.759100    0.126815   -0.000000
      3          1           0        1.099950    0.984911    0.000001
      4          1           0        1.032252   -0.545686   -0.886498
      5          1           0        1.032251   -0.545686    0.886498
      6          1           0       -1.091740   -0.806816   -0.000000
 ---------------------------------------------------------------------

 SCF Done:  E(RHF) =  -114.867186688     A.U. after   11 cycles

 The electronic state is 1-A.
 Alpha  occ. eigenvalues --  -20.52414 -11.25690  -1.35262  -0.92808  -0.67692
 Alpha  occ. eigenvalues --   -0.62028  -0.58098  -0.49667  -0.44758
 Alpha virt. eigenvalues --    0.21711   0.27136   0.31328   0.31877   0.38551
 Alpha virt. eigenvalues --    0.85282   0.87184   0.87262   1.10506   1.17193
 Alpha virt. eigenvalues --    1.19543   1.20029   1.35097   1.38483   1.45440

 Mulliken charges:
               1
     1  C   -0.141615
     2  O   -0.722801
     3  H    0.181316
     4  H    0.144530
     5  H    0.144530
     6  H    0.394040
 Sum of Mulliken charges =  -0.00000

 Dipole moment (field-independent basis, Debye):
    X=              1.4331    Y=             -1.9817    Z=             -0.0000  Tot=              2.4456
 Quadrupole moment (field-independent basis, Debye-Ang):
   XX=            -13.1529   YY=            -12.0495   ZZ=            -13.7373
   XY=              2.5734   XZ=             -0.0000   YZ=              0.0000

 Summary of Natural Population Analysis:

                                     Natural Population
             Natural    ---------------------------------------------
  Atom No    Charge        Core      Valence    Rydberg      Total
 --------------------------------------------------------------------
    C  1   -0.32353      1.99994     4.31869    0.00490     6.32353
    O  2   -0.77516      1.99995     6.77014    0.00507     8.77516
    H  3    0.22709      0.00000     0.77187    0.00103     0.77291
    H  4    0.19841      0.00000     0.79999    0.00160     0.80159
    H  5    0.19841      0.00000     0.79999    0.00160     0.80159
    H  6    0.47479      0.00000     0.52360    0.00162     0.52521
 ====================================================================
 * Total *  0.00000      3.99989    13.98428    0.01583    18.00000

 Normal termination of Gaussian 16 at Wed Jul 24 13:56:58 2024.
