 Gaussian 16, Revision C.01,
 Gaussian 16:  ES64L-G16RevC.01  3-Jul-2019

 -----------------------------------------------------------------
 #RHF/6-31G* int=nobasistransform Symmetry=None 5D 7F Pop=NBO7Read
 -----------------------------------------------------------------

 ---------
 mol65-NBO
 ---------
 Symbolic Z-matrix:
 Charge =  0 Multiplicity = 1

                          Input orientation:
 ---------------------------------------------------------------------
 Center     Atomic      Atomic             Coordinates (Angstroms)
 Number     Number       Type             X           Y           Z
 ---------------------------------------------------------------------
      1         14           0        0.000000    0.000000    0.000000
      2         17           0        1.169349    1.169349    1.169349
      3         17           0       -1.169349   -1.169349    1.169349
      4         17           0        1.169349   -1.169349   -1.169349
      5         17           0       -1.169349    1.169349   -1.169349
 ---------------------------------------------------------------------

 SCF Done:  E(RHF) =  -2127.03983302     A.U. after   10 cycles

 Alpha  occ. eigenvalues -- -104.84936-104.84934-104.84934-104.84934 -68.94557
 Alpha  occ. eigenvalues --  -10.59163 -10.59163 -10.59163 -10.59163  -8.05981
 Alpha  occ. eigenvalues --   -8.05981  -8.05981  -8.05979  -8.05694  -8.05694
 Alpha  occ. eigenvalues --   -8.05694  -8.05694  -8.05694  -8.05694  -8.05693
 Alpha  occ. eigenvalues --   -8.05693  -6.29285  -4.39940  -4.39940  -4.39940
 Alpha  occ. eigenvalues --   -1.18866  -1.12983  -1.12983  -1.12983  -0.73355
 Alpha  occ. eigenvalues --   -0.60900  -0.60900  -0.60900  -0.52978  -0.52978
 Alpha  occ. eigenvalues --   -0.51143  -0.51143  -0.51143  -0.48046  -0.48046
 Alpha  occ. eigenvalues --   -0.48046
 Alpha virt. eigenvalues --    0.11912   0.15767   0.15767   0.15767   0.25128
 Alpha virt. eigenvalues --    0.34720   0.34720   0.34720   0.51325   0.51325
 Alpha virt. eigenvalues --    0.51325   0.55956   0.55956   0.58118   0.63688

 Mulliken charges:
               1
     1  Si   0.965978
     2  Cl  -0.241495
     3  Cl  -0.241495
     4  Cl  -0.241495
     5  Cl  -0.241495
 Sum of Mulliken charges =  -0.00000

 Dipole moment (field-independent basis, Debye):
    X=             -0.0000    Y=             -0.0000    Z=             -0.0000  Tot=              0.0000
 Quadrupole moment (field-independent basis, Debye-Ang):
   XX=            -65.0509   YY=            -65.0509   ZZ=            -65.0509
   XY=             -0.0000   XZ=             -0.0000   YZ=             -0.0000

 Summary of Natural Population Analysis:

                                     Natural Population
             Natural    ---------------------------------------------
  Atom No    Charge        Core      Valence    Rydberg      Total
 --------------------------------------------------------------------
   Si  1    1.56708      9.99998     2.28094    0.15200    12.43292
   Cl  2   -0.39177      9.99998     7.37752    0.01426    17.39177
   Cl  3   -0.39177      9.99998     7.37752    0.01426    17.39177
   Cl  4   -0.39177      9.99998     7.37752    0.01426    17.39177
   Cl  5   -0.39177      9.99998     7.37752    0.01426    17.39177
 ====================================================================
 * Total *  0.00000     49.99992    31.79103    0.20905    82.00000

 Normal termination of Gaussian 16 at Mon Nov 18 16:40:45 2024.
