 Gaussian 16, Revision C.01,
 Gaussian 16:  ES64L-G16RevC.01  3-Jul-2019

 -----------------------------------------------------------------
 #RHF/6-31G* int=nobasistransform Symmetry=None 5D 7F Pop=NBO7Read
 -----------------------------------------------------------------

 ---------
 mol71-NBO
 ---------
 Symbolic Z-matrix:
 Charge =  0 Multiplicity = 1

                          Input orientation:
 ---------------------------------------------------------------------
 Center     Atomic      Atomic             Coordinates (Angstroms)
 Number     Number       Type             X           Y           Z
 ---------------------------------------------------------------------
      1          9           0        0.000000    1.110576   -0.273729
      2          8           0        0.000000    0.000000    0.615890
      3          9           0        0.000000   -1.110576   -0.273729
 ---------------------------------------------------------------------

 SCF Done:  E(RHF) =  -273.439524820     A.U. after   13 cycles

 Alpha  occ. eigenvalues --  -26.39955 -26.39953 -20.83091  -1.73558  -1.62480
 Alpha  occ. eigenvalues --   -1.28386  -0.80730  -0.78943  -0.78369  -0.71404
 Alpha  occ. eigenvalues --   -0.66928  -0.64638  -0.57882
 Alpha virt. eigenvalues --    0.12766   0.16815   1.05576   1.06733   1.07275
 Alpha virt. eigenvalues --    1.24813   1.35058   1.44908   1.47774   1.48606
 Alpha virt. eigenvalues --    1.52366   1.59798   1.69152   1.72870   1.76140

 Mulliken charges:
               1
     1  F   -0.166493
     2  O    0.332986
     3  F   -0.166493
 Sum of Mulliken charges =  -0.00000

 Dipole moment (field-independent basis, Debye):
    X=              0.0000    Y=             -0.0000    Z=              0.3874  Tot=              0.3874
 Quadrupole moment (field-independent basis, Debye-Ang):
   XX=            -14.6553   YY=            -14.4517   ZZ=            -13.9801
   XY=             -0.0000   XZ=             -0.0000   YZ=              0.0000

 Summary of Natural Population Analysis:

                                     Natural Population
             Natural    ---------------------------------------------
  Atom No    Charge        Core      Valence    Rydberg      Total
 --------------------------------------------------------------------
    F  1   -0.12692      2.00000     7.11834    0.00859     9.12692
    O  2    0.25385      1.99999     5.73291    0.01324     7.74615
    F  3   -0.12692      2.00000     7.11834    0.00859     9.12692
 ====================================================================
 * Total *  0.00000      5.99999    19.96959    0.03043    26.00000

 Normal termination of Gaussian 16 at Mon Nov 18 16:40:43 2024.
