 Gaussian 16, Revision C.01,
 Gaussian 16:  ES64L-G16RevC.01  3-Jul-2019

 -----------------------------------------------------------------
 #RHF/STO-3G int=nobasistransform Symmetry=None 5D 7F Pop=NBO7Read
 -----------------------------------------------------------------

 ----------
 mol130-NBO
 ----------
 Symbolic Z-matrix:
 Charge =  0 Multiplicity = 1

                          Input orientation:
 ---------------------------------------------------------------------
 Center     Atomic      Atomic             Coordinates (Angstroms)
 Number     Number       Type             X           Y           Z
 ---------------------------------------------------------------------
      1          7           0        0.000000    0.000000    0.395846
      2          6           0        0.000000    1.378021   -0.065175
      3          6           0        1.193401   -0.689011   -0.065175
      4          6           0       -1.193401   -0.689011   -0.065175
      5          1           0        0.000000    1.461142   -1.167899
      6          1           0        0.886156    1.891052    0.317655
      7          1           0       -0.886156    1.891052    0.317655
      8          1           0        1.265386   -0.730571   -1.167899
      9          1           0        1.194621   -1.712960    0.317655
     10          1           0        2.080777   -0.178092    0.317655
     11          1           0       -1.265386   -0.730571   -1.167899
     12          1           0       -2.080777   -0.178092    0.317655
     13          1           0       -1.194621   -1.712960    0.317655
 ---------------------------------------------------------------------

 SCF Done:  E(RHF) =  -171.189014502     A.U. after    9 cycles

 Alpha  occ. eigenvalues --  -15.32483 -11.06597 -11.06597 -11.06571  -1.17678
 Alpha  occ. eigenvalues --   -0.90882  -0.90882  -0.76874  -0.60740  -0.59050
 Alpha  occ. eigenvalues --   -0.59050  -0.51360  -0.51360  -0.48650  -0.45254
 Alpha  occ. eigenvalues --   -0.45254  -0.28900
 Alpha virt. eigenvalues --    0.60727   0.62550   0.62550   0.68717   0.68717
 Alpha virt. eigenvalues --    0.69938   0.71781   0.74892   0.74892   0.74981
 Alpha virt. eigenvalues --    0.80935   0.80935

 Mulliken charges:
               1
     1  N   -0.267881
     2  C   -0.083202
     3  C   -0.083202
     4  C   -0.083202
     5  H    0.044412
     6  H    0.064042
     7  H    0.064042
     8  H    0.044412
     9  H    0.064042
    10  H    0.064042
    11  H    0.044412
    12  H    0.064042
    13  H    0.064042
 Sum of Mulliken charges =   0.00000

 Dipole moment (field-independent basis, Debye):
    X=             -0.0000    Y=              0.0000    Z=             -1.0519  Tot=              1.0519
 Quadrupole moment (field-independent basis, Debye-Ang):
   XX=            -24.9255   YY=            -24.9255   ZZ=            -27.3656
   XY=             -0.0000   XZ=              0.0000   YZ=             -0.0000

 Summary of Natural Population Analysis:

                                     Natural Population
             Natural    ---------------------------------------------
  Atom No    Charge        Core      Valence    Rydberg      Total
 --------------------------------------------------------------------
    N  1   -0.23852      2.00000     5.23852    0.00000     7.23852
    C  2   -0.02691      1.99999     4.02692    0.00000     6.02691
    C  3   -0.02691      1.99999     4.02692    0.00000     6.02691
    C  4   -0.02691      1.99999     4.02692    0.00000     6.02691
    H  5    0.02308      0.00000     0.97692    0.00000     0.97692
    H  6    0.04167      0.00000     0.95833    0.00000     0.95833
    H  7    0.04167      0.00000     0.95833    0.00000     0.95833
    H  8    0.02308      0.00000     0.97692    0.00000     0.97692
    H  9    0.04167      0.00000     0.95833    0.00000     0.95833
    H 10    0.04167      0.00000     0.95833    0.00000     0.95833
    H 11    0.02308      0.00000     0.97692    0.00000     0.97692
    H 12    0.04167      0.00000     0.95833    0.00000     0.95833
    H 13    0.04167      0.00000     0.95833    0.00000     0.95833
 ====================================================================
 * Total *  0.00000      7.99998    26.00002    0.00000    34.00000

 Normal termination of Gaussian 16 at Mon Nov 18 15:41:48 2024.
