 Gaussian 16, Revision C.01,
 Gaussian 16:  ES64L-G16RevC.01  3-Jul-2019

 -----------------------------------------------------------------
 #RHF/STO-3G int=nobasistransform Symmetry=None 5D 7F Pop=NBO7Read
 -----------------------------------------------------------------

 ---------
 mol82-NBO
 ---------
 Symbolic Z-matrix:
 Charge =  0 Multiplicity = 1

                          Input orientation:
 ---------------------------------------------------------------------
 Center     Atomic      Atomic             Coordinates (Angstroms)
 Number     Number       Type             X           Y           Z
 ---------------------------------------------------------------------
      1          6           0        0.605711    1.746550    0.000000
      2          6           0        0.605711    0.404083    0.000000
      3          6           0       -0.605711   -0.404083    0.000000
      4          6           0       -0.605711   -1.746550    0.000000
      5          1           0        1.527617    2.317443    0.000000
      6          1           0       -0.321132    2.313116    0.000000
      7          1           0        1.553503   -0.133640    0.000000
      8          1           0       -1.553503    0.133640    0.000000
      9          1           0        0.321132   -2.313116    0.000000
     10          1           0       -1.527617   -2.317443    0.000000
 ---------------------------------------------------------------------

 SCF Done:  E(RHF) =  -153.017126746     A.U. after   10 cycles

 Alpha  occ. eigenvalues --  -11.03109 -11.03096 -11.01696 -11.01695  -1.03162
 Alpha  occ. eigenvalues --   -0.94087  -0.77189  -0.70653  -0.59149  -0.58750
 Alpha  occ. eigenvalues --   -0.49737  -0.49392  -0.44034  -0.39511  -0.26137
 Alpha virt. eigenvalues --    0.24211   0.41678   0.58845   0.67268   0.68296
 Alpha virt. eigenvalues --    0.69359   0.69974   0.87200   0.90614   1.01204
 Alpha virt. eigenvalues --    1.07242

 Mulliken charges:
               1
     1  C   -0.125470
     2  C   -0.057880
     3  C   -0.057880
     4  C   -0.125470
     5  H    0.062319
     6  H    0.060101
     7  H    0.060930
     8  H    0.060930
     9  H    0.060101
    10  H    0.062319
 Sum of Mulliken charges =  -0.00000

 Dipole moment (field-independent basis, Debye):
    X=             -0.0000    Y=             -0.0000    Z=              0.0000  Tot=              0.0000
 Quadrupole moment (field-independent basis, Debye-Ang):
   XX=            -22.2471   YY=            -22.4624   ZZ=            -25.1680
   XY=             -0.1757   XZ=              0.0000   YZ=             -0.0000

 Summary of Natural Population Analysis:

                                     Natural Population
             Natural    ---------------------------------------------
  Atom No    Charge        Core      Valence    Rydberg      Total
 --------------------------------------------------------------------
    C  1   -0.07373      2.00000     4.07373    0.00000     6.07373
    C  2   -0.03160      2.00000     4.03160    0.00000     6.03160
    C  3   -0.03160      2.00000     4.03160    0.00000     6.03160
    C  4   -0.07373      2.00000     4.07373    0.00000     6.07373
    H  5    0.03581      0.00000     0.96419    0.00000     0.96419
    H  6    0.03397      0.00000     0.96603    0.00000     0.96603
    H  7    0.03555      0.00000     0.96445    0.00000     0.96445
    H  8    0.03555      0.00000     0.96445    0.00000     0.96445
    H  9    0.03397      0.00000     0.96603    0.00000     0.96603
    H 10    0.03581      0.00000     0.96419    0.00000     0.96419
 ====================================================================
 * Total *  0.00000      8.00000    22.00000    0.00000    30.00000

 Normal termination of Gaussian 16 at Mon Nov 18 15:41:34 2024.
