 Gaussian 16, Revision C.01,
 Gaussian 16:  ES64L-G16RevC.01  3-Jul-2019

 -----------------------------------------------------------------
 #RHF/6-31G* int=nobasistransform Symmetry=None 5D 7F Pop=NBO7Read
 -----------------------------------------------------------------

 ---------
 mol61-NBO
 ---------
 Symbolic Z-matrix:
 Charge =  0 Multiplicity = 1

                          Input orientation:
 ---------------------------------------------------------------------
 Center     Atomic      Atomic             Coordinates (Angstroms)
 Number     Number       Type             X           Y           Z
 ---------------------------------------------------------------------
      1          8           0        0.000000    0.000000   -1.699243
      2          6           0        0.000000    0.000000   -0.520492
      3         16           0        0.000000    0.000000    1.044806
 ---------------------------------------------------------------------

 SCF Done:  E(RHF) =  -510.254275988     A.U. after   11 cycles

 Alpha  occ. eigenvalues --  -91.97966 -20.67110 -11.45286  -8.99704  -6.67979
 Alpha  occ. eigenvalues --   -6.67566  -6.67566  -1.49512  -1.09824  -0.77355
 Alpha  occ. eigenvalues --   -0.65098  -0.65098  -0.63651  -0.42076  -0.42076
 Alpha virt. eigenvalues --    0.11513   0.11513   0.21144   0.25807   0.47931
 Alpha virt. eigenvalues --    0.51103   0.51103   0.71369   0.73666   0.73666
 Alpha virt. eigenvalues --    0.87362   1.00509   1.00509   1.02501   1.02501

 Mulliken charges:
               1
     1  O   -0.419963
     2  C    0.455422
     3  S   -0.035458
 Sum of Mulliken charges =  -0.00000

 Dipole moment (field-independent basis, Debye):
    X=             -0.0000    Y=             -0.0000    Z=              0.6604  Tot=              0.6604
 Quadrupole moment (field-independent basis, Debye-Ang):
   XX=            -23.5577   YY=            -23.5577   ZZ=            -25.8813
   XY=              0.0000   XZ=              0.0000   YZ=             -0.0000

 Summary of Natural Population Analysis:

                                     Natural Population
             Natural    ---------------------------------------------
  Atom No    Charge        Core      Valence    Rydberg      Total
 --------------------------------------------------------------------
    O  1   -0.54767      1.99999     6.51648    0.03120     8.54767
    C  2    0.59856      1.99999     3.35203    0.04942     5.40144
    S  3   -0.05089      9.99998     6.01032    0.04059    16.05089
 ====================================================================
 * Total *  0.00000     13.99996    15.87882    0.12122    30.00000

 Normal termination of Gaussian 16 at Mon Nov 18 16:40:42 2024.
