 Gaussian 16, Revision C.01,
 Gaussian 16:  ES64L-G16RevC.01  3-Jul-2019

 -----------------------------------------------------------------
 #RHF/6-31G* int=nobasistransform Symmetry=None 5D 7F Pop=NBO7Read
 -----------------------------------------------------------------

 ----------
 mol105-NBO
 ----------
 Symbolic Z-matrix:
 Charge =  0 Multiplicity = 1

                          Input orientation:
 ---------------------------------------------------------------------
 Center     Atomic      Atomic             Coordinates (Angstroms)
 Number     Number       Type             X           Y           Z
 ---------------------------------------------------------------------
      1          6           0       -0.038450   -0.397326    0.739421
      2          7           0       -0.038450    0.875189    0.000000
      3          6           0       -0.038450   -0.397326   -0.739421
      4          1           0        0.903052    1.268239    0.000000
      5          1           0       -0.955661   -0.604926    1.280047
      6          1           0       -0.955661   -0.604926   -1.280047
      7          1           0        0.869409   -0.708399    1.249033
      8          1           0        0.869409   -0.708399   -1.249033
 ---------------------------------------------------------------------

 SCF Done:  E(RHF) =  -133.036603406     A.U. after   11 cycles

 Alpha  occ. eigenvalues --  -15.55717 -11.25235 -11.25164  -1.25498  -0.89302
 Alpha  occ. eigenvalues --   -0.83761  -0.69641  -0.63568  -0.52726  -0.47590
 Alpha  occ. eigenvalues --   -0.47479  -0.39068
 Alpha virt. eigenvalues --    0.22427   0.27065   0.29353   0.30066   0.31871
 Alpha virt. eigenvalues --    0.37308   0.40291   0.44865   0.66715   0.77834
 Alpha virt. eigenvalues --    0.78612   0.83081   0.91410   0.93160   0.97712

 Mulliken charges:
               1
     1  C   -0.219314
     2  N   -0.644123
     3  C   -0.219314
     4  H    0.346430
     5  H    0.192130
     6  H    0.192130
     7  H    0.176030
     8  H    0.176030
 Sum of Mulliken charges =  -0.00000

 Dipole moment (field-independent basis, Debye):
    X=              1.4808    Y=             -1.3862    Z=              0.0000  Tot=              2.0284
 Quadrupole moment (field-independent basis, Debye-Ang):
   XX=            -17.5827   YY=            -21.3570   ZZ=            -18.4578
   XY=              2.2753   XZ=             -0.0000   YZ=             -0.0000

 Summary of Natural Population Analysis:

                                     Natural Population
             Natural    ---------------------------------------------
  Atom No    Charge        Core      Valence    Rydberg      Total
 --------------------------------------------------------------------
    C  1   -0.26113      1.99999     4.24028    0.02086     6.26113
    N  2   -0.70494      1.99999     5.68023    0.02472     7.70494
    C  3   -0.26113      1.99999     4.24028    0.02086     6.26113
    H  4    0.37649      0.00000     0.62225    0.00127     0.62351
    H  5    0.21875      0.00000     0.78029    0.00095     0.78125
    H  6    0.21875      0.00000     0.78029    0.00095     0.78125
    H  7    0.20660      0.00000     0.79242    0.00097     0.79340
    H  8    0.20660      0.00000     0.79242    0.00097     0.79340
 ====================================================================
 * Total *  0.00000      5.99997    17.92846    0.07157    24.00000

 Normal termination of Gaussian 16 at Mon Nov 18 16:40:46 2024.
