 Gaussian 16, Revision C.01,
 Gaussian 16:  ES64L-G16RevC.01  3-Jul-2019

 -----------------------
 #RHF/4-31G Pop=NBO7Read
 -----------------------

 -----
 NBO-a
 -----
 Symbolic Z-matrix:
 Charge =  0 Multiplicity = 1

                         Standard orientation:
 ---------------------------------------------------------------------
 Center     Atomic      Atomic             Coordinates (Angstroms)
 Number     Number       Type             X           Y           Z
 ---------------------------------------------------------------------
      1          3           0        0.000000    0.000000    0.377703
      2          1           0        0.000000    0.000000   -1.133109
 ---------------------------------------------------------------------

 SCF Done:  E(RHF) =  -7.97519253546     A.U. after   10 cycles

 The electronic state is 1-SG.
 Alpha  occ. eigenvalues --   -2.44387  -0.30460
 Alpha virt. eigenvalues --    0.01618   0.06747   0.06747   0.16075   0.25196
 Alpha virt. eigenvalues --    0.25196   0.25274   0.41991   1.32799

 Mulliken charges:
               1
     1  Li   0.257786
     2  H   -0.257786
 Sum of Mulliken charges =  -0.00000

 Dipole moment (field-independent basis, Debye):
    X=              0.0000    Y=              0.0000    Z=              5.7096  Tot=              5.7096
 Quadrupole moment (field-independent basis, Debye-Ang):
   XX=             -5.2427   YY=             -5.2427   ZZ=             -6.7861
   XY=              0.0000   XZ=              0.0000   YZ=              0.0000

 Summary of Natural Population Analysis:

                                     Natural Population
             Natural    ---------------------------------------------
  Atom No    Charge        Core      Valence    Rydberg      Total
 --------------------------------------------------------------------
   Li  1    0.74272      1.99994     0.22553    0.03181     2.25728
    H  2   -0.74272      0.00000     1.74270    0.00001     1.74272
 ====================================================================
 * Total *  0.00000      1.99994     1.96824    0.03182     4.00000

 Normal termination of Gaussian 16 at Wed Jul 24 13:56:59 2024.
