 Gaussian 16, Revision C.01,
 Gaussian 16:  ES64L-G16RevC.01  3-Jul-2019

 -----------------------------------------------------------------
 #RHF/STO-3G int=nobasistransform Symmetry=None 5D 7F Pop=NBO7Read
 -----------------------------------------------------------------

 ---------
 mol41-NBO
 ---------
 Symbolic Z-matrix:
 Charge =  0 Multiplicity = 1

                          Input orientation:
 ---------------------------------------------------------------------
 Center     Atomic      Atomic             Coordinates (Angstroms)
 Number     Number       Type             X           Y           Z
 ---------------------------------------------------------------------
      1         15           0        0.000000    0.000000    0.966144
      2         15           0        0.000000    0.000000   -0.966144
 ---------------------------------------------------------------------

 SCF Done:  E(RHF) =  -673.747791915     A.U. after    6 cycles

 Alpha  occ. eigenvalues --  -78.80055 -78.80045  -7.14569  -7.14465  -4.96673
 Alpha  occ. eigenvalues --   -4.96651  -4.96613  -4.96613  -4.96484  -4.96484
 Alpha  occ. eigenvalues --   -0.78482  -0.48180  -0.24256  -0.20292  -0.20292
 Alpha virt. eigenvalues --    0.22633   0.22633   0.57964

 Mulliken charges:
               1
     1  P   -0.000000
     2  P    0.000000
 Sum of Mulliken charges =   0.00000

 Dipole moment (field-independent basis, Debye):
    X=              0.0000    Y=              0.0000    Z=             -0.0000  Tot=              0.0000
 Quadrupole moment (field-independent basis, Debye-Ang):
   XX=            -20.4359   YY=            -20.4359   ZZ=            -24.1273
   XY=              0.0000   XZ=              0.0000   YZ=              0.0000

 Summary of Natural Population Analysis:

                                     Natural Population
             Natural    ---------------------------------------------
  Atom No    Charge        Core      Valence    Rydberg      Total
 --------------------------------------------------------------------
    P  1    0.00000      9.99978     5.00022    0.00000    15.00000
    P  2    0.00000      9.99978     5.00022    0.00000    15.00000
 ====================================================================
 * Total *  0.00000     19.99957    10.00043    0.00000    30.00000

 Normal termination of Gaussian 16 at Mon Nov 18 15:41:31 2024.
