 Gaussian 16, Revision C.01,
 Gaussian 16:  ES64L-G16RevC.01  3-Jul-2019

 -----------------------------------------------------------------
 #RHF/6-31G* int=nobasistransform Symmetry=None 5D 7F Pop=NBO7Read
 -----------------------------------------------------------------

 ---------
 mol28-NBO
 ---------
 Symbolic Z-matrix:
 Charge =  0 Multiplicity = 1

                          Input orientation:
 ---------------------------------------------------------------------
 Center     Atomic      Atomic             Coordinates (Angstroms)
 Number     Number       Type             X           Y           Z
 ---------------------------------------------------------------------
      1          8           0        0.000000    0.000000    0.493003
      2          6           0        0.000000    0.000000   -0.657337
 ---------------------------------------------------------------------

 SCF Done:  E(RHF) =  -112.733907325     A.U. after    9 cycles

 Alpha  occ. eigenvalues --  -20.67230 -11.37212  -1.50358  -0.79475  -0.62327
 Alpha  occ. eigenvalues --   -0.62327  -0.54991
 Alpha virt. eigenvalues --    0.15262   0.15262   0.40919   0.73348   0.73348
 Alpha virt. eigenvalues --    0.76985   0.99444   1.11041   1.20815   1.20815
 Alpha virt. eigenvalues --    1.75680   1.75680   1.77235   1.82514   1.82514

 Mulliken charges:
               1
     1  O   -0.317201
     2  C    0.317201
 Sum of Mulliken charges =  -0.00000

 Dipole moment (field-independent basis, Debye):
    X=              0.0000    Y=              0.0000    Z=             -0.4380  Tot=              0.4380
 Quadrupole moment (field-independent basis, Debye-Ang):
   XX=             -9.9700   YY=             -9.9700   ZZ=            -12.0897
   XY=             -0.0000   XZ=             -0.0000   YZ=              0.0000

 Summary of Natural Population Analysis:

                                     Natural Population
             Natural    ---------------------------------------------
  Atom No    Charge        Core      Valence    Rydberg      Total
 --------------------------------------------------------------------
    O  1   -0.62674      1.99999     6.59404    0.03271     8.62674
    C  2    0.62674      1.99999     3.32779    0.04548     5.37326
 ====================================================================
 * Total *  0.00000      3.99998     9.92183    0.07819    14.00000

 Normal termination of Gaussian 16 at Mon Nov 18 16:40:07 2024.
