 Gaussian 16, Revision C.01,
 Gaussian 16:  ES64L-G16RevC.01  3-Jul-2019

 -----------------------------------------------------------------
 #RHF/STO-3G int=nobasistransform Symmetry=None 5D 7F Pop=NBO7Read
 -----------------------------------------------------------------

 ---------
 mol33-NBO
 ---------
 Symbolic Z-matrix:
 Charge =  0 Multiplicity = 1

                          Input orientation:
 ---------------------------------------------------------------------
 Center     Atomic      Atomic             Coordinates (Angstroms)
 Number     Number       Type             X           Y           Z
 ---------------------------------------------------------------------
      1          7           0        0.000000    0.718959   -0.077687
      2          7           0        0.000000   -0.718959   -0.077687
      3          1           0        0.211082    1.092752    0.847887
      4          1           0       -0.948214    1.005026   -0.304078
      5          1           0       -0.211082   -1.092752    0.847887
      6          1           0        0.948214   -1.005026   -0.304078
 ---------------------------------------------------------------------

 SCF Done:  E(RHF) =  -109.745930909     A.U. after    9 cycles

 Alpha  occ. eigenvalues --  -15.34495 -15.34428  -1.20177  -0.95987  -0.61744
 Alpha  occ. eigenvalues --   -0.60960  -0.53837  -0.34794  -0.33891
 Alpha virt. eigenvalues --    0.59619   0.61064   0.67791   0.72062   0.76171

 Mulliken charges:
               1
     1  N   -0.319984
     2  N   -0.319984
     3  H    0.150479
     4  H    0.169505
     5  H    0.150479
     6  H    0.169505
 Sum of Mulliken charges =   0.00000

 Dipole moment (field-independent basis, Debye):
    X=              0.0000    Y=             -0.0000    Z=              2.1643  Tot=              2.1643
 Quadrupole moment (field-independent basis, Debye-Ang):
   XX=            -11.2609   YY=            -12.1515   ZZ=            -11.8365
   XY=             -2.3385   XZ=              0.0000   YZ=              0.0000

 Summary of Natural Population Analysis:

                                     Natural Population
             Natural    ---------------------------------------------
  Atom No    Charge        Core      Valence    Rydberg      Total
 --------------------------------------------------------------------
    N  1   -0.29788      1.99999     5.29788    0.00000     7.29788
    N  2   -0.29788      1.99999     5.29788    0.00000     7.29788
    H  3    0.14037      0.00000     0.85963    0.00000     0.85963
    H  4    0.15750      0.00000     0.84250    0.00000     0.84250
    H  5    0.14037      0.00000     0.85963    0.00000     0.85963
    H  6    0.15750      0.00000     0.84250    0.00000     0.84250
 ====================================================================
 * Total *  0.00000      3.99999    14.00001    0.00000    18.00000

 Normal termination of Gaussian 16 at Mon Nov 18 15:41:19 2024.
