 Gaussian 16, Revision C.01,
 Gaussian 16:  ES64L-G16RevC.01  3-Jul-2019

 -----------------------------------------------------------------
 #RHF/STO-3G int=nobasistransform Symmetry=None 5D 7F Pop=NBO7Read
 -----------------------------------------------------------------

 ----------
 mol123-NBO
 ----------
 Symbolic Z-matrix:
 Charge =  0 Multiplicity = 1

                          Input orientation:
 ---------------------------------------------------------------------
 Center     Atomic      Atomic             Coordinates (Angstroms)
 Number     Number       Type             X           Y           Z
 ---------------------------------------------------------------------
      1          8           0        0.000000    0.000000    1.405591
      2          6           0        0.000000    0.000000    0.179060
      3          6           0        0.000000    1.285490   -0.616342
      4          6           0        0.000000   -1.285490   -0.616342
      5          1           0        0.000000    2.134917    0.066535
      6          1           0        0.000000   -2.134917    0.066535
      7          1           0       -0.881086    1.331548   -1.264013
      8          1           0        0.881086    1.331548   -1.264013
      9          1           0        0.881086   -1.331548   -1.264013
     10          1           0       -0.881086   -1.331548   -1.264013
 ---------------------------------------------------------------------

 SCF Done:  E(RHF) =  -189.534210292     A.U. after   10 cycles

 Alpha  occ. eigenvalues --  -20.26703 -11.11707 -11.04989 -11.04983  -1.31546
 Alpha  occ. eigenvalues --   -0.98653  -0.91767  -0.68159  -0.58977  -0.58052
 Alpha  occ. eigenvalues --   -0.57382  -0.52139  -0.49310  -0.48195  -0.38909
 Alpha  occ. eigenvalues --   -0.32456
 Alpha virt. eigenvalues --    0.29323   0.62417   0.66530   0.67690   0.69006
 Alpha virt. eigenvalues --    0.71513   0.72109   0.73886   0.81397   1.00243

 Mulliken charges:
               1
     1  O   -0.225631
     2  C    0.205955
     3  C   -0.205236
     4  C   -0.205236
     5  H    0.076192
     6  H    0.076192
     7  H    0.069441
     8  H    0.069441
     9  H    0.069441
    10  H    0.069441
 Sum of Mulliken charges =  -0.00000

 Dipole moment (field-independent basis, Debye):
    X=             -0.0000    Y=             -0.0000    Z=             -1.9429  Tot=              1.9429
 Quadrupole moment (field-independent basis, Debye-Ang):
   XX=            -22.5042   YY=            -22.8291   ZZ=            -26.0630
   XY=             -0.0000   XZ=              0.0000   YZ=              0.0000

 Summary of Natural Population Analysis:

                                     Natural Population
             Natural    ---------------------------------------------
  Atom No    Charge        Core      Valence    Rydberg      Total
 --------------------------------------------------------------------
    O  1   -0.24105      2.00000     6.24105    0.00000     8.24105
    C  2    0.28522      2.00000     3.71478    0.00000     5.71478
    C  3   -0.19642      2.00000     4.19642    0.00000     6.19642
    C  4   -0.19642      2.00000     4.19642    0.00000     6.19642
    H  5    0.06092      0.00000     0.93908    0.00000     0.93908
    H  6    0.06092      0.00000     0.93908    0.00000     0.93908
    H  7    0.05671      0.00000     0.94329    0.00000     0.94329
    H  8    0.05671      0.00000     0.94329    0.00000     0.94329
    H  9    0.05671      0.00000     0.94329    0.00000     0.94329
    H 10    0.05671      0.00000     0.94329    0.00000     0.94329
 ====================================================================
 * Total *  0.00000      7.99999    24.00001    0.00000    32.00000

 Normal termination of Gaussian 16 at Mon Nov 18 15:41:48 2024.
