 Gaussian 16, Revision C.01,
 Gaussian 16:  ES64L-G16RevC.01  3-Jul-2019

 -----------------------------------------------------------------
 #RHF/STO-3G int=nobasistransform Symmetry=None 5D 7F Pop=NBO7Read
 -----------------------------------------------------------------

 ---------
 mol74-NBO
 ---------
 Symbolic Z-matrix:
 Charge =  0 Multiplicity = 1

                          Input orientation:
 ---------------------------------------------------------------------
 Center     Atomic      Atomic             Coordinates (Angstroms)
 Number     Number       Type             X           Y           Z
 ---------------------------------------------------------------------
      1          6           0        0.000000    0.000000    0.675402
      2          6           0        0.000000    0.000000   -0.675402
      3         17           0        0.000000    1.448939    1.589701
      4         17           0        0.000000   -1.448939    1.589701
      5         17           0        0.000000   -1.448939   -1.589701
      6         17           0        0.000000    1.448939   -1.589701
 ---------------------------------------------------------------------

 SCF Done:  E(RHF) =  -1893.04654960     A.U. after   10 cycles

 Alpha  occ. eigenvalues -- -103.78818-103.78818-103.78818-103.78818 -11.21735
 Alpha  occ. eigenvalues --  -11.21671 -10.46489 -10.46473 -10.46467 -10.46444
 Alpha  occ. eigenvalues --   -7.90930  -7.90925  -7.90922  -7.90911  -7.90320
 Alpha  occ. eigenvalues --   -7.90292  -7.90292  -7.90289  -7.90286  -7.90285
 Alpha  occ. eigenvalues --   -7.90281  -7.90250  -1.23032  -1.14567  -1.08497
 Alpha  occ. eigenvalues --   -1.05245  -0.93577  -0.69679  -0.63515  -0.62192
 Alpha  occ. eigenvalues --   -0.59508  -0.52536  -0.50047  -0.46534  -0.46106
 Alpha  occ. eigenvalues --   -0.45970  -0.45189  -0.44940  -0.42285  -0.33236
 Alpha virt. eigenvalues --    0.19677   0.27399   0.28161   0.31298   0.54660
 Alpha virt. eigenvalues --    0.81782

 Mulliken charges:
               1
     1  C    0.064466
     2  C    0.064466
     3  Cl  -0.032233
     4  Cl  -0.032233
     5  Cl  -0.032233
     6  Cl  -0.032233
 Sum of Mulliken charges =  -0.00000

 Dipole moment (field-independent basis, Debye):
    X=              0.0000    Y=             -0.0000    Z=              0.0000  Tot=              0.0000
 Quadrupole moment (field-independent basis, Debye-Ang):
   XX=            -56.5457   YY=            -61.1071   ZZ=            -60.7035
   XY=              0.0000   XZ=             -0.0000   YZ=             -0.0000

 Summary of Natural Population Analysis:

                                     Natural Population
             Natural    ---------------------------------------------
  Atom No    Charge        Core      Valence    Rydberg      Total
 --------------------------------------------------------------------
    C  1    0.14484      2.00000     3.85516    0.00000     5.85516
    C  2    0.14484      2.00000     3.85516    0.00000     5.85516
   Cl  3   -0.07242     10.00000     7.07242    0.00000    17.07242
   Cl  4   -0.07242     10.00000     7.07242    0.00000    17.07242
   Cl  5   -0.07242     10.00000     7.07242    0.00000    17.07242
   Cl  6   -0.07242     10.00000     7.07242    0.00000    17.07242
 ====================================================================
 * Total *  0.00000     43.99998    36.00002    0.00000    80.00000

 Normal termination of Gaussian 16 at Mon Nov 18 15:41:36 2024.
