 Gaussian 16, Revision C.01,
 Gaussian 16:  ES64L-G16RevC.01  3-Jul-2019

 -----------------------------------------------------------------
 #RHF/6-31G* int=nobasistransform Symmetry=None 5D 7F Pop=NBO7Read
 -----------------------------------------------------------------

 ----------
 mol126-NBO
 ----------
 Symbolic Z-matrix:
 Charge =  0 Multiplicity = 1

                          Input orientation:
 ---------------------------------------------------------------------
 Center     Atomic      Atomic             Coordinates (Angstroms)
 Number     Number       Type             X           Y           Z
 ---------------------------------------------------------------------
      1          6           0        0.000000    0.523878    0.000000
      2          6           0        1.486075    0.716377    0.000000
      3         17           0       -0.452286   -1.217999    0.000000
      4          8           0       -0.845539    1.374940    0.000000
      5          1           0        1.701027    1.784793    0.000000
      6          1           0        1.917847    0.240067    0.882679
      7          1           0        1.917847    0.240067   -0.882679
 ---------------------------------------------------------------------

 SCF Done:  E(RHF) =  -611.826204964     A.U. after   14 cycles

 Alpha  occ. eigenvalues -- -104.82732 -20.60490 -11.41794 -11.26720 -10.56812
 Alpha  occ. eigenvalues --   -8.03638  -8.03321  -8.03298  -1.44122  -1.13875
 Alpha  occ. eigenvalues --   -1.03361  -0.77728  -0.67819  -0.66720  -0.64301
 Alpha  occ. eigenvalues --   -0.58568  -0.54953  -0.46857  -0.46586  -0.45325
 Alpha virt. eigenvalues --    0.12837   0.18660   0.23351   0.28310   0.29715
 Alpha virt. eigenvalues --    0.38954   0.43243   0.55963   0.61673   0.63586
 Alpha virt. eigenvalues --    0.63954   0.72519   0.74725   0.79558   0.86062

 Mulliken charges:
               1
     1  C    0.433206
     2  C   -0.579810
     3  Cl  -0.074238
     4  O   -0.457192
     5  H    0.228327
     6  H    0.224853
     7  H    0.224853
 Sum of Mulliken charges =  -0.00000

 Dipole moment (field-independent basis, Debye):
    X=              3.1570    Y=             -0.0115    Z=              0.0000  Tot=              3.1570
 Quadrupole moment (field-independent basis, Debye-Ang):
   XX=            -29.9586   YY=            -33.1636   ZZ=            -29.5938
   XY=              2.8547   XZ=              0.0000   YZ=              0.0000

 Summary of Natural Population Analysis:

                                     Natural Population
             Natural    ---------------------------------------------
  Atom No    Charge        Core      Valence    Rydberg      Total
 --------------------------------------------------------------------
    C  1    0.67926      1.99999     3.26787    0.05288     5.32074
    C  2   -0.74593      1.99999     4.73155    0.01439     6.74593
   Cl  3   -0.12065      9.99999     7.10131    0.01936    17.12065
    O  4   -0.58733      1.99999     6.56224    0.02510     8.58733
    H  5    0.25597      0.00000     0.74280    0.00123     0.74403
    H  6    0.25934      0.00000     0.73982    0.00084     0.74066
    H  7    0.25934      0.00000     0.73982    0.00084     0.74066
 ====================================================================
 * Total *  0.00000     15.99997    23.88540    0.11464    40.00000

 Normal termination of Gaussian 16 at Mon Nov 18 16:41:12 2024.
