 Gaussian 16, Revision C.01,
 Gaussian 16:  ES64L-G16RevC.01  3-Jul-2019

 -----------------------------------------------------------------
 #RHF/STO-3G int=nobasistransform Symmetry=None 5D 7F Pop=NBO7Read
 -----------------------------------------------------------------

 ----------
 mol104-NBO
 ----------
 Symbolic Z-matrix:
 Charge =  0 Multiplicity = 1

                          Input orientation:
 ---------------------------------------------------------------------
 Center     Atomic      Atomic             Coordinates (Angstroms)
 Number     Number       Type             X           Y           Z
 ---------------------------------------------------------------------
      1          8           0        0.424546    1.327024    0.008034
      2          6           0        0.077158    0.149789   -0.004249
      3          7           0        0.985518   -0.878537   -0.048910
      4          6           0       -1.371475   -0.288665   -0.000144
      5          1           0        0.707952   -1.824249    0.169942
      6          1           0       -1.997229    0.584922   -0.175477
      7          1           0       -1.560842   -1.039270   -0.771686
      8          1           0       -1.632113   -0.723007    0.969814
      9          1           0        1.953133   -0.631574    0.111866
 ---------------------------------------------------------------------

 SCF Done:  E(RHF) =  -205.276514964     A.U. after   13 cycles

 Alpha  occ. eigenvalues --  -20.21406 -15.33982 -11.14642 -11.05373  -1.30401
 Alpha  occ. eigenvalues --   -1.12881  -0.95115  -0.72196  -0.65050  -0.59319
 Alpha  occ. eigenvalues --   -0.56938  -0.51364  -0.47882  -0.45727  -0.31868
 Alpha  occ. eigenvalues --   -0.30112
 Alpha virt. eigenvalues --    0.32968   0.58933   0.63873   0.66564   0.70719
 Alpha virt. eigenvalues --    0.72270   0.74231   0.86829   1.02990

 Mulliken charges:
               1
     1  O   -0.284807
     2  C    0.310193
     3  N   -0.438097
     4  C   -0.207162
     5  H    0.194713
     6  H    0.081897
     7  H    0.072674
     8  H    0.070678
     9  H    0.199911
 Sum of Mulliken charges =   0.00000

 Dipole moment (field-independent basis, Debye):
    X=             -0.2794    Y=             -2.6608    Z=              0.6665  Tot=              2.7572
 Quadrupole moment (field-independent basis, Debye-Ang):
   XX=            -20.1824   YY=            -23.7102   ZZ=            -22.4550
   XY=             -1.4527   XZ=              0.8136   YZ=             -0.8917

 Summary of Natural Population Analysis:

                                     Natural Population
             Natural    ---------------------------------------------
  Atom No    Charge        Core      Valence    Rydberg      Total
 --------------------------------------------------------------------
    O  1   -0.31728      2.00000     6.31728    0.00000     8.31728
    C  2    0.39421      2.00000     3.60580    0.00000     5.60579
    N  3   -0.45634      2.00000     5.45634    0.00000     7.45634
    C  4   -0.19856      2.00000     4.19856    0.00000     6.19856
    H  5    0.19501      0.00000     0.80499    0.00000     0.80499
    H  6    0.06618      0.00000     0.93382    0.00000     0.93382
    H  7    0.05923      0.00000     0.94077    0.00000     0.94077
    H  8    0.05796      0.00000     0.94204    0.00000     0.94204
    H  9    0.19960      0.00000     0.80040    0.00000     0.80040
 ====================================================================
 * Total *  0.00000      7.99999    24.00001    0.00000    32.00000

 Normal termination of Gaussian 16 at Mon Nov 18 15:41:30 2024.
