 Gaussian 16, Revision C.01,
 Gaussian 16:  ES64L-G16RevC.01  3-Jul-2019

 -----------------------------------------------------------------
 #RHF/STO-3G int=nobasistransform Symmetry=None 5D 7F Pop=NBO7Read
 -----------------------------------------------------------------

 ----------
 mol135-NBO
 ----------
 Symbolic Z-matrix:
 Charge =  0 Multiplicity = 1

                          Input orientation:
 ---------------------------------------------------------------------
 Center     Atomic      Atomic             Coordinates (Angstroms)
 Number     Number       Type             X           Y           Z
 ---------------------------------------------------------------------
      1          1           0        0.000000    0.000000    0.368583
      2          1           0        0.000000    0.000000   -0.368583
 ---------------------------------------------------------------------

 SCF Done:  E(RHF) =  -1.11690055783     A.U. after    1 cycles

 Alpha  occ. eigenvalues --   -0.57973
 Alpha virt. eigenvalues --    0.67408

 Mulliken charges:
               1
     1  H   -0.000000
     2  H    0.000000
 Sum of Mulliken charges =   0.00000

 Dipole moment (field-independent basis, Debye):
    X=              0.0000    Y=              0.0000    Z=             -0.0000  Tot=              0.0000
 Quadrupole moment (field-independent basis, Debye-Ang):
   XX=             -1.8471   YY=             -1.8471   ZZ=             -1.4294
   XY=              0.0000   XZ=              0.0000   YZ=              0.0000

 Summary of Natural Population Analysis:

                                     Natural Population
             Natural    ---------------------------------------------
  Atom No    Charge        Core      Valence    Rydberg      Total
 --------------------------------------------------------------------
    H  1    0.00000      0.00000     1.00000    0.00000     1.00000
    H  2    0.00000      0.00000     1.00000    0.00000     1.00000
 ====================================================================
 * Total *  0.00000      0.00000     2.00000    0.00000     2.00000

 Normal termination of Gaussian 16 at Mon Nov 18 15:41:46 2024.
