 Gaussian 16, Revision C.01,
 Gaussian 16:  ES64L-G16RevC.01  3-Jul-2019

 -----------------------------------------------------------------
 #RHF/6-31G* int=nobasistransform Symmetry=None 5D 7F Pop=NBO7Read
 -----------------------------------------------------------------

 ---------
 mol57-NBO
 ---------
 Symbolic Z-matrix:
 Charge =  0 Multiplicity = 1

                          Input orientation:
 ---------------------------------------------------------------------
 Center     Atomic      Atomic             Coordinates (Angstroms)
 Number     Number       Type             X           Y           Z
 ---------------------------------------------------------------------
      1         13           0        0.000000    0.000000    0.000000
      2          9           0        0.000000    1.644720    0.000000
      3          9           0        1.424369   -0.822360    0.000000
      4          9           0       -1.424369   -0.822360    0.000000
 ---------------------------------------------------------------------

 SCF Done:  E(RHF) =  -540.443728762     A.U. after    9 cycles

 Alpha  occ. eigenvalues --  -58.55084 -26.27886 -26.27886 -26.27885  -4.96951
 Alpha  occ. eigenvalues --   -3.28795  -3.28483  -3.28483  -1.56677  -1.55460
 Alpha  occ. eigenvalues --   -1.55460  -0.72093  -0.67652  -0.67652  -0.65509
 Alpha  occ. eigenvalues --   -0.64429  -0.64429  -0.63565  -0.63565  -0.62045
 Alpha virt. eigenvalues --    0.06200   0.08824   0.17098   0.17098   0.30312
 Alpha virt. eigenvalues --    0.33755   0.48485   0.48485   0.69149   0.69149
 Alpha virt. eigenvalues --    0.80861   1.07267   1.07267   1.54578   1.56835

 Mulliken charges:
               1
     1  Al   1.774378
     2  F   -0.591459
     3  F   -0.591459
     4  F   -0.591459
 Sum of Mulliken charges =  -0.00000

 Dipole moment (field-independent basis, Debye):
    X=              0.0000    Y=             -0.0000    Z=             -0.0000  Tot=              0.0000
 Quadrupole moment (field-independent basis, Debye-Ang):
   XX=            -30.8103   YY=            -30.8103   ZZ=            -19.9678
   XY=             -0.0000   XZ=             -0.0000   YZ=             -0.0000

 Summary of Natural Population Analysis:

                                     Natural Population
             Natural    ---------------------------------------------
  Atom No    Charge        Core      Valence    Rydberg      Total
 --------------------------------------------------------------------
   Al  1    2.28176      9.99993     0.68196    0.03635    10.71824
    F  2   -0.76059      2.00000     7.75200    0.00859     9.76059
    F  3   -0.76059      2.00000     7.75200    0.00859     9.76059
    F  4   -0.76059      2.00000     7.75200    0.00859     9.76059
 ====================================================================
 * Total *  0.00000     15.99992    23.93795    0.06213    40.00000

 Normal termination of Gaussian 16 at Mon Nov 18 16:40:08 2024.
