 Gaussian 16, Revision C.01,
 Gaussian 16:  ES64L-G16RevC.01  3-Jul-2019

 -----------------------------------------------------------------
 #RHF/6-31G* int=nobasistransform Symmetry=None 5D 7F Pop=NBO7Read
 -----------------------------------------------------------------

 ---------
 mol98-NBO
 ---------
 Symbolic Z-matrix:
 Charge =  0 Multiplicity = 1

                          Input orientation:
 ---------------------------------------------------------------------
 Center     Atomic      Atomic             Coordinates (Angstroms)
 Number     Number       Type             X           Y           Z
 ---------------------------------------------------------------------
      1          6           0        0.000000    0.000000   -1.186930
      2          6           0        0.000000    0.000000    0.273874
      3          7           0        0.000000    0.000000    1.452206
      4          1           0        0.000000    1.024986   -1.562370
      5          1           0        0.887664   -0.512493   -1.562370
      6          1           0       -0.887664   -0.512493   -1.562370
 ---------------------------------------------------------------------

 SCF Done:  E(RHF) =  -131.921751676     A.U. after   11 cycles

 Alpha  occ. eigenvalues --  -15.58457 -11.28818 -11.28313  -1.20684  -1.03925
 Alpha  occ. eigenvalues --   -0.69975  -0.62797  -0.62797  -0.55031  -0.45096
 Alpha  occ. eigenvalues --   -0.45096
 Alpha virt. eigenvalues --    0.19634   0.19634   0.22213   0.31780   0.31780
 Alpha virt. eigenvalues --    0.36269   0.43751   0.74030   0.74030   0.80375
 Alpha virt. eigenvalues --    0.84104   0.84104   0.88395   1.03170   1.08124

 Mulliken charges:
               1
     1  C   -0.553874
     2  C    0.263850
     3  N   -0.410515
     4  H    0.233513
     5  H    0.233513
     6  H    0.233513
 Sum of Mulliken charges =  -0.00000

 Dipole moment (field-independent basis, Debye):
    X=             -0.0000    Y=              0.0000    Z=             -4.1236  Tot=              4.1236
 Quadrupole moment (field-independent basis, Debye-Ang):
   XX=            -17.6757   YY=            -17.6757   ZZ=            -20.9402
   XY=             -0.0000   XZ=              0.0000   YZ=             -0.0000

 Summary of Natural Population Analysis:

                                     Natural Population
             Natural    ---------------------------------------------
  Atom No    Charge        Core      Valence    Rydberg      Total
 --------------------------------------------------------------------
    C  1   -0.74459      1.99999     4.73294    0.01165     6.74459
    C  2    0.33010      1.99999     3.63501    0.03490     5.66990
    N  3   -0.38232      1.99999     5.35915    0.02318     7.38232
    H  4    0.26560      0.00000     0.73367    0.00073     0.73440
    H  5    0.26560      0.00000     0.73367    0.00073     0.73440
    H  6    0.26560      0.00000     0.73367    0.00073     0.73440
 ====================================================================
 * Total *  0.00000      5.99997    15.92810    0.07193    22.00000

 Normal termination of Gaussian 16 at Mon Nov 18 16:40:46 2024.
