 Gaussian 16, Revision C.01,
 Gaussian 16:  ES64L-G16RevC.01  3-Jul-2019

 -----------------------------------------------------------------
 #RHF/STO-3G int=nobasistransform Symmetry=None 5D 7F Pop=NBO7Read
 -----------------------------------------------------------------

 ---------
 mol54-NBO
 ---------
 Symbolic Z-matrix:
 Charge =  0 Multiplicity = 1

                          Input orientation:
 ---------------------------------------------------------------------
 Center     Atomic      Atomic             Coordinates (Angstroms)
 Number     Number       Type             X           Y           Z
 ---------------------------------------------------------------------
      1         16           0        0.000000    0.000000    0.370268
      2          8           0        0.000000    1.277617   -0.370268
      3          8           0        0.000000   -1.277617   -0.370268
 ---------------------------------------------------------------------

 SCF Done:  E(RHF) =  -540.625176446     A.U. after   11 cycles

 Alpha  occ. eigenvalues --  -91.03549 -20.19347 -20.19345  -8.91292  -6.54631
 Alpha  occ. eigenvalues --   -6.54214  -6.54086  -1.36630  -1.25294  -0.75471
 Alpha  occ. eigenvalues --   -0.54403  -0.52758  -0.51442  -0.35696  -0.30279
 Alpha  occ. eigenvalues --   -0.27481
 Alpha virt. eigenvalues --    0.15333   0.50328   0.61384

 Mulliken charges:
               1
     1  S    0.817232
     2  O   -0.408616
     3  O   -0.408616
 Sum of Mulliken charges =  -0.00000

 Dipole moment (field-independent basis, Debye):
    X=             -0.0000    Y=             -0.0000    Z=              1.6281  Tot=              1.6281
 Quadrupole moment (field-independent basis, Debye-Ang):
   XX=            -17.7790   YY=            -25.5901   ZZ=            -20.3988
   XY=             -0.0000   XZ=              0.0000   YZ=              0.0000

 Summary of Natural Population Analysis:

                                     Natural Population
             Natural    ---------------------------------------------
  Atom No    Charge        Core      Valence    Rydberg      Total
 --------------------------------------------------------------------
    S  1    0.84044      9.99995     5.15962    0.00000    15.15956
    O  2   -0.42022      2.00000     6.42022    0.00000     8.42022
    O  3   -0.42022      2.00000     6.42022    0.00000     8.42022
 ====================================================================
 * Total *  0.00000     13.99995    18.00005    0.00000    32.00000

 Normal termination of Gaussian 16 at Mon Nov 18 15:41:21 2024.
