 Gaussian 16, Revision C.01,
 Gaussian 16:  ES64L-G16RevC.01  3-Jul-2019

 -----------------------
 #RHF/4-31G Pop=NBO7Read
 -----------------------

 -----
 NBO-a
 -----
 Symbolic Z-matrix:
 Charge =  0 Multiplicity = 1

                          Input orientation:
 ---------------------------------------------------------------------
 Center     Atomic      Atomic             Coordinates (Angstroms)
 Number     Number       Type             X           Y           Z
 ---------------------------------------------------------------------
      1          6           0        0.000001    0.000000    0.000000
      2          1           0       -0.000002    0.000000    1.083010
      3          1           0        1.021073    0.000000   -0.361001
      4          1           0       -0.510534    0.884274   -0.361005
      5          1           0       -0.510534   -0.884274   -0.361005
 ---------------------------------------------------------------------

 SCF Done:  E(RHF) =  -40.1397564068     A.U. after    8 cycles

 Alpha  occ. eigenvalues --  -11.18336  -0.94741  -0.54473  -0.54473  -0.54472
 Alpha virt. eigenvalues --    0.25871   0.32976   0.32976   0.32976   0.82209
 Alpha virt. eigenvalues --    0.82209   0.82209   1.23676   1.23676   1.23676
 Alpha virt. eigenvalues --    1.25647   1.51177

 Mulliken charges:
               1
     1  C   -0.611178
     2  H    0.152795
     3  H    0.152795
     4  H    0.152794
     5  H    0.152794
 Sum of Mulliken charges =  -0.00000

 Dipole moment (field-independent basis, Debye):
    X=              0.0000    Y=              0.0000    Z=             -0.0000  Tot=              0.0000
 Quadrupole moment (field-independent basis, Debye-Ang):
   XX=             -8.3891   YY=             -8.3891   ZZ=             -8.3891
   XY=             -0.0000   XZ=             -0.0000   YZ=             -0.0000

 Summary of Natural Population Analysis:

                                     Natural Population
             Natural    ---------------------------------------------
  Atom No    Charge        Core      Valence    Rydberg      Total
 --------------------------------------------------------------------
    C  1   -0.93350      1.99993     4.93354    0.00003     6.93350
    H  2    0.23338      0.00000     0.76605    0.00058     0.76662
    H  3    0.23338      0.00000     0.76605    0.00058     0.76662
    H  4    0.23338      0.00000     0.76605    0.00058     0.76662
    H  5    0.23338      0.00000     0.76605    0.00058     0.76662
 ====================================================================
 * Total *  0.00000      1.99993     7.99773    0.00234    10.00000

 Normal termination of Gaussian 16 at Wed Jul 24 13:56:59 2024.
