 Gaussian 16, Revision C.01,
 Gaussian 16:  ES64L-G16RevC.01  3-Jul-2019

 -----------------------------------------------------------------
 #RHF/STO-3G int=nobasistransform Symmetry=None 5D 7F Pop=NBO7Read
 -----------------------------------------------------------------

 ---------
 mol84-NBO
 ---------
 Symbolic Z-matrix:
 Charge =  0 Multiplicity = 1

                          Input orientation:
 ---------------------------------------------------------------------
 Center     Atomic      Atomic             Coordinates (Angstroms)
 Number     Number       Type             X           Y           Z
 ---------------------------------------------------------------------
      1          6           0        0.000000    0.000000    0.315026
      2          6           0        0.000000   -0.767920   -0.932032
      3          6           0        0.000000    0.767920   -0.932032
      4          6           0        0.000000    0.000000    1.640027
      5          1           0       -0.912794   -1.271789   -1.239303
      6          1           0        0.912794   -1.271789   -1.239303
      7          1           0        0.912794    1.271789   -1.239303
      8          1           0       -0.912794    1.271789   -1.239303
      9          1           0        0.000000   -0.926908    2.205640
     10          1           0        0.000000    0.926908    2.205640
 ---------------------------------------------------------------------

 SCF Done:  E(RHF) =  -153.009595768     A.U. after   10 cycles

 Alpha  occ. eigenvalues --  -11.04362 -11.04349 -11.03210 -11.01858  -1.09765
 Alpha  occ. eigenvalues --   -0.92059  -0.79172  -0.68417  -0.61345  -0.58568
 Alpha  occ. eigenvalues --   -0.55722  -0.48558  -0.39183  -0.37550  -0.31002
 Alpha virt. eigenvalues --    0.30455   0.48029   0.65563   0.66202   0.68500
 Alpha virt. eigenvalues --    0.70669   0.73102   0.75284   0.83327   0.90968
 Alpha virt. eigenvalues --    1.11655

 Mulliken charges:
               1
     1  C    0.000149
     2  C   -0.143603
     3  C   -0.143603
     4  C   -0.137152
     5  H    0.073070
     6  H    0.073070
     7  H    0.073070
     8  H    0.073070
     9  H    0.065965
    10  H    0.065965
 Sum of Mulliken charges =   0.00000

 Dipole moment (field-independent basis, Debye):
    X=             -0.0000    Y=             -0.0000    Z=             -0.1992  Tot=              0.1992
 Quadrupole moment (field-independent basis, Debye-Ang):
   XX=            -23.4504   YY=            -23.3876   ZZ=            -23.4916
   XY=              0.0000   XZ=              0.0000   YZ=              0.0000

 Summary of Natural Population Analysis:

                                     Natural Population
             Natural    ---------------------------------------------
  Atom No    Charge        Core      Valence    Rydberg      Total
 --------------------------------------------------------------------
    C  1    0.03961      2.00000     3.96039    0.00000     5.96039
    C  2   -0.11855      2.00000     4.11856    0.00000     6.11855
    C  3   -0.11855      2.00000     4.11856    0.00000     6.11855
    C  4   -0.10510      2.00000     4.10510    0.00000     6.10510
    H  5    0.05433      0.00000     0.94567    0.00000     0.94567
    H  6    0.05433      0.00000     0.94567    0.00000     0.94567
    H  7    0.05433      0.00000     0.94567    0.00000     0.94567
    H  8    0.05433      0.00000     0.94567    0.00000     0.94567
    H  9    0.04263      0.00000     0.95737    0.00000     0.95737
    H 10    0.04263      0.00000     0.95737    0.00000     0.95737
 ====================================================================
 * Total *  0.00000      7.99999    22.00001    0.00000    30.00000

 Normal termination of Gaussian 16 at Mon Nov 18 15:41:34 2024.
