 Gaussian 16, Revision C.01,
 Gaussian 16:  ES64L-G16RevC.01  3-Jul-2019

 -----------------------------------------------------------------
 #RHF/6-31G* int=nobasistransform Symmetry=None 5D 7F Pop=NBO7Read
 -----------------------------------------------------------------

 ---------
 mol06-NBO
 ---------
 Symbolic Z-matrix:
 Charge =  0 Multiplicity = 1

                          Input orientation:
 ---------------------------------------------------------------------
 Center     Atomic      Atomic             Coordinates (Angstroms)
 Number     Number       Type             X           Y           Z
 ---------------------------------------------------------------------
      1          6           0        0.000000    0.000000    0.000000
      2          1           0        0.629118    0.629118    0.629118
      3          1           0       -0.629118   -0.629118    0.629118
      4          1           0        0.629118   -0.629118   -0.629118
      5          1           0       -0.629118    0.629118   -0.629118
 ---------------------------------------------------------------------

 SCF Done:  E(RHF) =  -40.1947434984     A.U. after    8 cycles

 Alpha  occ. eigenvalues --  -11.20369  -0.94218  -0.54469  -0.54469  -0.54469
 Alpha virt. eigenvalues --    0.25602   0.32613   0.32613   0.32613   0.73037
 Alpha virt. eigenvalues --    0.73037   0.73037   1.17908   1.17908   1.17908
 Alpha virt. eigenvalues --    1.24441   1.32858   1.94171   1.94171   2.58291

 Mulliken charges:
               1
     1  C   -0.676074
     2  H    0.169019
     3  H    0.169019
     4  H    0.169019
     5  H    0.169019
 Sum of Mulliken charges =  -0.00000

 Dipole moment (field-independent basis, Debye):
    X=              0.0000    Y=             -0.0000    Z=             -0.0000  Tot=              0.0000
 Quadrupole moment (field-independent basis, Debye-Ang):
   XX=             -8.3947   YY=             -8.3947   ZZ=             -8.3947
   XY=             -0.0000   XZ=             -0.0000   YZ=              0.0000

 Summary of Natural Population Analysis:

                                     Natural Population
             Natural    ---------------------------------------------
  Atom No    Charge        Core      Valence    Rydberg      Total
 --------------------------------------------------------------------
    C  1   -0.86705      1.99999     4.85917    0.00789     6.86705
    H  2    0.21676      0.00000     0.78276    0.00048     0.78324
    H  3    0.21676      0.00000     0.78276    0.00048     0.78324
    H  4    0.21676      0.00000     0.78276    0.00048     0.78324
    H  5    0.21676      0.00000     0.78276    0.00048     0.78324
 ====================================================================
 * Total *  0.00000      1.99999     7.99021    0.00979    10.00000

 Normal termination of Gaussian 16 at Mon Nov 18 16:40:10 2024.
