 Gaussian 16, Revision C.01,
 Gaussian 16:  ES64L-G16RevC.01  3-Jul-2019

 -----------------------------------------------------------------
 #RHF/STO-3G int=nobasistransform Symmetry=None 5D 7F Pop=NBO7Read
 -----------------------------------------------------------------

 ---------
 mol12-NBO
 ---------
 Symbolic Z-matrix:
 Charge =  0 Multiplicity = 1

                          Input orientation:
 ---------------------------------------------------------------------
 Center     Atomic      Atomic             Coordinates (Angstroms)
 Number     Number       Type             X           Y           Z
 ---------------------------------------------------------------------
      1          9           0        0.000000    0.000000    0.093389
      2          1           0        0.000000    0.000000   -0.840502
 ---------------------------------------------------------------------

 SCF Done:  E(RHF) =  -98.5722186740     A.U. after    6 cycles

 Alpha  occ. eigenvalues --  -25.90154  -1.46601  -0.58015  -0.46365  -0.46365
 Alpha virt. eigenvalues --    0.61156

 Mulliken charges:
               1
     1  F   -0.202521
     2  H    0.202521
 Sum of Mulliken charges =  -0.00000

 Dipole moment (field-independent basis, Debye):
    X=             -0.0000    Y=              0.0000    Z=             -1.2723  Tot=              1.2723
 Quadrupole moment (field-independent basis, Debye-Ang):
   XX=             -4.6316   YY=             -4.6316   ZZ=             -3.4885
   XY=              0.0000   XZ=             -0.0000   YZ=              0.0000

 Summary of Natural Population Analysis:

                                     Natural Population
             Natural    ---------------------------------------------
  Atom No    Charge        Core      Valence    Rydberg      Total
 --------------------------------------------------------------------
    F  1   -0.23514      2.00000     7.23514    0.00000     9.23514
    H  2    0.23514      0.00000     0.76486    0.00000     0.76486
 ====================================================================
 * Total *  0.00000      2.00000     8.00000    0.00000    10.00000

 Normal termination of Gaussian 16 at Mon Nov 18 15:41:33 2024.
