 Gaussian 16, Revision C.01,
 Gaussian 16:  ES64L-G16RevC.01  3-Jul-2019

 -----------------------------------------------------------------
 #RHF/6-31G* int=nobasistransform Symmetry=None 5D 7F Pop=NBO7Read
 -----------------------------------------------------------------

 ---------
 mol78-NBO
 ---------
 Symbolic Z-matrix:
 Charge =  0 Multiplicity = 1

                          Input orientation:
 ---------------------------------------------------------------------
 Center     Atomic      Atomic             Coordinates (Angstroms)
 Number     Number       Type             X           Y           Z
 ---------------------------------------------------------------------
      1          6           0        0.000000    0.000000    0.858299
      2          6           0        0.000000   -0.650545   -0.498802
      3          6           0        0.000000    0.650545   -0.498802
      4          1           0        0.912438    0.000000    1.456387
      5          1           0       -0.912438    0.000000    1.456387
      6          1           0        0.000000   -1.584098   -1.038469
      7          1           0        0.000000    1.584098   -1.038469
 ---------------------------------------------------------------------

 SCF Done:  E(RHF) =  -115.821343111     A.U. after   11 cycles

 Alpha  occ. eigenvalues --  -11.24286 -11.24083 -11.23471  -1.15240  -0.81930
 Alpha  occ. eigenvalues --   -0.76374  -0.67585  -0.59220  -0.48577  -0.41837
 Alpha  occ. eigenvalues --   -0.35055
 Alpha virt. eigenvalues --    0.17919   0.27532   0.27708   0.29339   0.34253
 Alpha virt. eigenvalues --    0.35207   0.40422   0.49570   0.69371   0.73324
 Alpha virt. eigenvalues --    0.77456   0.82004   0.85909   0.88119   0.90916

 Mulliken charges:
               1
     1  C   -0.340911
     2  C   -0.195336
     3  C   -0.195336
     4  H    0.154696
     5  H    0.154696
     6  H    0.211096
     7  H    0.211096
 Sum of Mulliken charges =  -0.00000

 Dipole moment (field-independent basis, Debye):
    X=              0.0000    Y=             -0.0000    Z=             -0.5313  Tot=              0.5313
 Quadrupole moment (field-independent basis, Debye-Ang):
   XX=            -19.5154   YY=            -16.6056   ZZ=            -18.4154
   XY=             -0.0000   XZ=              0.0000   YZ=              0.0000

 Summary of Natural Population Analysis:

                                     Natural Population
             Natural    ---------------------------------------------
  Atom No    Charge        Core      Valence    Rydberg      Total
 --------------------------------------------------------------------
    C  1   -0.44782      1.99999     4.43259    0.01524     6.44782
    C  2   -0.20274      1.99999     4.18308    0.01967     6.20274
    C  3   -0.20274      1.99999     4.18308    0.01967     6.20274
    H  4    0.19282      0.00000     0.80504    0.00215     0.80718
    H  5    0.19282      0.00000     0.80504    0.00215     0.80718
    H  6    0.23383      0.00000     0.76555    0.00062     0.76617
    H  7    0.23383      0.00000     0.76555    0.00062     0.76617
 ====================================================================
 * Total *  0.00000      5.99998    15.93992    0.06011    22.00000

 Normal termination of Gaussian 16 at Mon Nov 18 16:40:42 2024.
