 Gaussian 16, Revision C.01,
 Gaussian 16:  ES64L-G16RevC.01  3-Jul-2019

 -----------------------------------------------------------------
 #RHF/6-31G* int=nobasistransform Symmetry=None 5D 7F Pop=NBO7Read
 -----------------------------------------------------------------

 ----------
 mol130-NBO
 ----------
 Symbolic Z-matrix:
 Charge =  0 Multiplicity = 1

                          Input orientation:
 ---------------------------------------------------------------------
 Center     Atomic      Atomic             Coordinates (Angstroms)
 Number     Number       Type             X           Y           Z
 ---------------------------------------------------------------------
      1          7           0        0.000000    0.000000    0.395846
      2          6           0        0.000000    1.378021   -0.065175
      3          6           0        1.193401   -0.689011   -0.065175
      4          6           0       -1.193401   -0.689011   -0.065175
      5          1           0        0.000000    1.461142   -1.167899
      6          1           0        0.886156    1.891052    0.317655
      7          1           0       -0.886156    1.891052    0.317655
      8          1           0        1.265386   -0.730571   -1.167899
      9          1           0        1.194621   -1.712960    0.317655
     10          1           0        2.080777   -0.178092    0.317655
     11          1           0       -1.265386   -0.730571   -1.167899
     12          1           0       -2.080777   -0.178092    0.317655
     13          1           0       -1.194621   -1.712960    0.317655
 ---------------------------------------------------------------------

 SCF Done:  E(RHF) =  -173.267365137     A.U. after   11 cycles

 Alpha  occ. eigenvalues --  -15.54596 -11.23664 -11.23664 -11.23661  -1.22417
 Alpha  occ. eigenvalues --   -0.94725  -0.94725  -0.80473  -0.64062  -0.62727
 Alpha  occ. eigenvalues --   -0.62727  -0.54231  -0.54231  -0.51539  -0.49714
 Alpha  occ. eigenvalues --   -0.49714  -0.35339
 Alpha virt. eigenvalues --    0.22237   0.29572   0.29572   0.30530   0.30829
 Alpha virt. eigenvalues --    0.30829   0.33886   0.35250   0.35250   0.39050
 Alpha virt. eigenvalues --    0.43533   0.43533   0.73274   0.73274   0.77166

 Mulliken charges:
               1
     1  N   -0.539392
     2  C   -0.293256
     3  C   -0.293256
     4  C   -0.293256
     5  H    0.133426
     6  H    0.169814
     7  H    0.169814
     8  H    0.133426
     9  H    0.169814
    10  H    0.169813
    11  H    0.133426
    12  H    0.169813
    13  H    0.169814
 Sum of Mulliken charges =  -0.00000

 Dipole moment (field-independent basis, Debye):
    X=              0.0000    Y=             -0.0000    Z=             -0.8374  Tot=              0.8374
 Quadrupole moment (field-independent basis, Debye-Ang):
   XX=            -26.2874   YY=            -26.2874   ZZ=            -29.8541
   XY=              0.0000   XZ=             -0.0000   YZ=             -0.0000

 Summary of Natural Population Analysis:

                                     Natural Population
             Natural    ---------------------------------------------
  Atom No    Charge        Core      Valence    Rydberg      Total
 --------------------------------------------------------------------
    N  1   -0.55941      1.99999     5.53919    0.02023     7.55941
    C  2   -0.41101      1.99999     4.39060    0.02042     6.41101
    C  3   -0.41101      1.99999     4.39060    0.02042     6.41101
    C  4   -0.41101      1.99999     4.39060    0.02042     6.41101
    H  5    0.17592      0.00000     0.82151    0.00257     0.82408
    H  6    0.21078      0.00000     0.78833    0.00089     0.78922
    H  7    0.21078      0.00000     0.78833    0.00089     0.78922
    H  8    0.17592      0.00000     0.82151    0.00257     0.82408
    H  9    0.21078      0.00000     0.78833    0.00089     0.78922
    H 10    0.21078      0.00000     0.78833    0.00089     0.78922
    H 11    0.17592      0.00000     0.82151    0.00257     0.82408
    H 12    0.21078      0.00000     0.78833    0.00089     0.78922
    H 13    0.21078      0.00000     0.78833    0.00089     0.78922
 ====================================================================
 * Total *  0.00000      7.99997    25.90549    0.09455    34.00000

 Normal termination of Gaussian 16 at Mon Nov 18 16:41:11 2024.
