 Gaussian 16, Revision C.01,
 Gaussian 16:  ES64L-G16RevC.01  3-Jul-2019

 -----------------------------------------------------------------
 #RHF/6-31G* int=nobasistransform Symmetry=None 5D 7F Pop=NBO7Read
 -----------------------------------------------------------------

 ---------
 mol52-NBO
 ---------
 Symbolic Z-matrix:
 Charge =  0 Multiplicity = 1

                          Input orientation:
 ---------------------------------------------------------------------
 Center     Atomic      Atomic             Coordinates (Angstroms)
 Number     Number       Type             X           Y           Z
 ---------------------------------------------------------------------
      1          6           0       -0.047953    1.149519    0.000000
      2         16           0       -0.047953   -0.664856    0.000000
      3          1           0        1.283076   -0.823249    0.000000
      4          1           0       -1.092601    1.461428    0.000000
      5          1           0        0.432249    1.551207    0.892259
      6          1           0        0.432249    1.551207   -0.892259
 ---------------------------------------------------------------------

 SCF Done:  E(RHF) =  -437.698176995     A.U. after   11 cycles

 Alpha  occ. eigenvalues --  -91.93328 -11.25591  -8.95084  -6.63310  -6.63150
 Alpha  occ. eigenvalues --   -6.62915  -1.04037  -0.86886  -0.60971  -0.59268
 Alpha  occ. eigenvalues --   -0.53132  -0.45945  -0.35623
 Alpha virt. eigenvalues --    0.17505   0.22841   0.27532   0.29210   0.29681
 Alpha virt. eigenvalues --    0.52446   0.53666   0.55449   0.56012   0.71194
 Alpha virt. eigenvalues --    0.72843   0.80804   0.96185   1.03372   1.08995

 Mulliken charges:
               1
     1  C   -0.644334
     2  S   -0.052905
     3  H    0.091127
     4  H    0.204343
     5  H    0.200885
     6  H    0.200885
 Sum of Mulliken charges =   0.00000

 Dipole moment (field-independent basis, Debye):
    X=              0.8983    Y=              1.5019    Z=             -0.0000  Tot=              1.7500
 Quadrupole moment (field-independent basis, Debye-Ang):
   XX=            -19.4287   YY=            -20.6084   ZZ=            -22.8279
   XY=             -1.4355   XZ=             -0.0000   YZ=              0.0000

 Summary of Natural Population Analysis:

                                     Natural Population
             Natural    ---------------------------------------------
  Atom No    Charge        Core      Valence    Rydberg      Total
 --------------------------------------------------------------------
    C  1   -0.78572      1.99999     4.77409    0.01164     6.78572
    S  2   -0.03130      9.99998     5.98056    0.05075    16.03130
    H  3    0.11275      0.00000     0.88642    0.00083     0.88725
    H  4    0.24091      0.00000     0.75795    0.00114     0.75909
    H  5    0.23168      0.00000     0.76640    0.00192     0.76832
    H  6    0.23168      0.00000     0.76640    0.00192     0.76832
 ====================================================================
 * Total *  0.00000     11.99998    13.93182    0.06820    26.00000

 Normal termination of Gaussian 16 at Mon Nov 18 16:40:07 2024.
