 Gaussian 16, Revision C.01,
 Gaussian 16:  ES64L-G16RevC.01  3-Jul-2019

 -----------------------------------------------------------------
 #RHF/STO-3G int=nobasistransform Symmetry=None 5D 7F Pop=NBO7Read
 -----------------------------------------------------------------

 ---------
 mol98-NBO
 ---------
 Symbolic Z-matrix:
 Charge =  0 Multiplicity = 1

                          Input orientation:
 ---------------------------------------------------------------------
 Center     Atomic      Atomic             Coordinates (Angstroms)
 Number     Number       Type             X           Y           Z
 ---------------------------------------------------------------------
      1          6           0        0.000000    0.000000   -1.186930
      2          6           0        0.000000    0.000000    0.273874
      3          7           0        0.000000    0.000000    1.452206
      4          1           0        0.000000    1.024986   -1.562370
      5          1           0        0.887664   -0.512493   -1.562370
      6          1           0       -0.887664   -0.512493   -1.562370
 ---------------------------------------------------------------------

 SCF Done:  E(RHF) =  -130.269311196     A.U. after   10 cycles

 Alpha  occ. eigenvalues --  -15.34735 -11.11123 -11.06179  -1.15356  -0.98643
 Alpha  occ. eigenvalues --   -0.64484  -0.59096  -0.59096  -0.46618  -0.39526
 Alpha  occ. eigenvalues --   -0.39526
 Alpha virt. eigenvalues --    0.34943   0.34943   0.57923   0.68884   0.68884
 Alpha virt. eigenvalues --    0.69200   1.29762

 Mulliken charges:
               1
     1  C   -0.186269
     2  C    0.072600
     3  N   -0.190022
     4  H    0.101230
     5  H    0.101230
     6  H    0.101230
 Sum of Mulliken charges =  -0.00000

 Dipole moment (field-independent basis, Debye):
    X=             -0.0000    Y=              0.0000    Z=             -3.0638  Tot=              3.0638
 Quadrupole moment (field-independent basis, Debye-Ang):
   XX=            -16.2111   YY=            -16.2111   ZZ=            -19.7228
   XY=              0.0000   XZ=              0.0000   YZ=             -0.0000

 Summary of Natural Population Analysis:

                                     Natural Population
             Natural    ---------------------------------------------
  Atom No    Charge        Core      Valence    Rydberg      Total
 --------------------------------------------------------------------
    C  1   -0.17871      2.00000     4.17871    0.00000     6.17871
    C  2    0.10182      2.00000     3.89818    0.00000     5.89818
    N  3   -0.18348      2.00000     5.18348    0.00000     7.18348
    H  4    0.08679      0.00000     0.91321    0.00000     0.91321
    H  5    0.08679      0.00000     0.91321    0.00000     0.91321
    H  6    0.08679      0.00000     0.91321    0.00000     0.91321
 ====================================================================
 * Total *  0.00000      6.00000    16.00000    0.00000    22.00000

 Normal termination of Gaussian 16 at Mon Nov 18 15:41:28 2024.
