 Gaussian 16, Revision C.01,
 Gaussian 16:  ES64L-G16RevC.01  3-Jul-2019

 -----------------------------------------------------------------
 #RHF/6-31G* int=nobasistransform Symmetry=None 5D 7F Pop=NBO7Read
 -----------------------------------------------------------------

 ----------
 mol135-NBO
 ----------
 Symbolic Z-matrix:
 Charge =  0 Multiplicity = 1

                          Input orientation:
 ---------------------------------------------------------------------
 Center     Atomic      Atomic             Coordinates (Angstroms)
 Number     Number       Type             X           Y           Z
 ---------------------------------------------------------------------
      1          1           0        0.000000    0.000000    0.368583
      2          1           0        0.000000    0.000000   -0.368583
 ---------------------------------------------------------------------

 SCF Done:  E(RHF) =  -1.12679024342     A.U. after    4 cycles

 Alpha  occ. eigenvalues --   -0.59668
 Alpha virt. eigenvalues --    0.23923   0.77336   1.40817

 Mulliken charges:
               1
     1  H   -0.000000
     2  H   -0.000000
 Sum of Mulliken charges =  -0.00000

 Dipole moment (field-independent basis, Debye):
    X=              0.0000    Y=              0.0000    Z=              0.0000  Tot=              0.0000
 Quadrupole moment (field-independent basis, Debye-Ang):
   XX=             -2.0386   YY=             -2.0386   ZZ=             -1.6173
   XY=              0.0000   XZ=              0.0000   YZ=              0.0000

 Summary of Natural Population Analysis:

                                     Natural Population
             Natural    ---------------------------------------------
  Atom No    Charge        Core      Valence    Rydberg      Total
 --------------------------------------------------------------------
    H  1    0.00000      0.00000     1.00000    0.00000     1.00000
    H  2    0.00000      0.00000     1.00000    0.00000     1.00000
 ====================================================================
 * Total *  0.00000      0.00000     2.00000    0.00000     2.00000

 Normal termination of Gaussian 16 at Mon Nov 18 16:41:09 2024.
