 Gaussian 16, Revision C.01,
 Gaussian 16:  ES64L-G16RevC.01  3-Jul-2019

 -----------------------------------------------------------------
 #RHF/6-31G* int=nobasistransform Symmetry=None 5D 7F Pop=NBO7Read
 -----------------------------------------------------------------

 ---------
 mol46-NBO
 ---------
 Symbolic Z-matrix:
 Charge =  0 Multiplicity = 1

                          Input orientation:
 ---------------------------------------------------------------------
 Center     Atomic      Atomic             Coordinates (Angstroms)
 Number     Number       Type             X           Y           Z
 ---------------------------------------------------------------------
      1          6           0        0.000000    0.000000   -1.123382
      2         16           0        0.000000    0.000000    0.421268
 ---------------------------------------------------------------------

 SCF Done:  E(RHF) =  -435.302042121     A.U. after   11 cycles

 Alpha  occ. eigenvalues --  -91.98174 -11.36173  -9.00271  -6.68362  -6.68177
 Alpha  occ. eigenvalues --   -6.68177  -1.10128  -0.69034  -0.46914  -0.45844
 Alpha  occ. eigenvalues --   -0.45844
 Alpha virt. eigenvalues --    0.07055   0.07055   0.22655   0.42504   0.50515
 Alpha virt. eigenvalues --    0.50515   0.61349   0.71995   0.81217   0.81217
 Alpha virt. eigenvalues --    0.99250   0.99250   1.00635   1.00635   1.09182

 Mulliken charges:
               1
     1  C   -0.021289
     2  S    0.021289
 Sum of Mulliken charges =  -0.00000

 Dipole moment (field-independent basis, Debye):
    X=              0.0000    Y=              0.0000    Z=              1.2076  Tot=              1.2076
 Quadrupole moment (field-independent basis, Debye-Ang):
   XX=            -18.3965   YY=            -18.3965   ZZ=            -20.5033
   XY=             -0.0000   XZ=              0.0000   YZ=              0.0000

 Summary of Natural Population Analysis:

                                     Natural Population
             Natural    ---------------------------------------------
  Atom No    Charge        Core      Valence    Rydberg      Total
 --------------------------------------------------------------------
    C  1   -0.05485      1.99999     4.02262    0.03224     6.05485
    S  2    0.05485      9.99999     5.88273    0.06243    15.94515
 ====================================================================
 * Total *  0.00000     11.99998     9.90535    0.09467    22.00000

 Normal termination of Gaussian 16 at Mon Nov 18 16:40:07 2024.
