 Gaussian 16, Revision C.01,
 Gaussian 16:  ES64L-G16RevC.01  3-Jul-2019

 -----------------------------------------------------------------
 #RHF/STO-3G int=nobasistransform Symmetry=None 5D 7F Pop=NBO7Read
 -----------------------------------------------------------------

 ----------
 mol124-NBO
 ----------
 Symbolic Z-matrix:
 Charge =  0 Multiplicity = 1

                          Input orientation:
 ---------------------------------------------------------------------
 Center     Atomic      Atomic             Coordinates (Angstroms)
 Number     Number       Type             X           Y           Z
 ---------------------------------------------------------------------
      1          6           0        0.000000    0.154560    0.000000
      2          8           0        0.166384    1.360084    0.000000
      3          8           0       -1.236449   -0.415036    0.000000
      4          1           0       -1.867646    0.333582    0.000000
      5          6           0        1.073776   -0.892748    0.000000
      6          1           0        2.048189   -0.408135    0.000000
      7          1           0        0.968661   -1.528353    0.881747
      8          1           0        0.968661   -1.528353   -0.881747
 ---------------------------------------------------------------------

 SCF Done:  E(RHF) =  -224.807987607     A.U. after   12 cycles

 Alpha  occ. eigenvalues --  -20.30621 -20.25224 -11.17318 -11.06368  -1.38304
 Alpha  occ. eigenvalues --   -1.27585  -0.97086  -0.73285  -0.61126  -0.58861
 Alpha  occ. eigenvalues --   -0.58762  -0.52298  -0.48972  -0.45810  -0.35106
 Alpha  occ. eigenvalues --   -0.34386
 Alpha virt. eigenvalues --    0.30773   0.56923   0.65496   0.68072   0.70190
 Alpha virt. eigenvalues --    0.71564   0.77307   1.00536

 Mulliken charges:
               1
     1  C    0.322463
     2  O   -0.275442
     3  O   -0.301567
     4  H    0.210944
     5  C   -0.208201
     6  H    0.083746
     7  H    0.084029
     8  H    0.084029
 Sum of Mulliken charges =   0.00000

 Dipole moment (field-independent basis, Debye):
    X=             -0.2005    Y=             -0.8446    Z=             -0.0000  Tot=              0.8681
 Quadrupole moment (field-independent basis, Debye-Ang):
   XX=            -19.5708   YY=            -24.7868   ZZ=            -20.7218
   XY=             -2.9614   XZ=              0.0000   YZ=              0.0000

 Summary of Natural Population Analysis:

                                     Natural Population
             Natural    ---------------------------------------------
  Atom No    Charge        Core      Valence    Rydberg      Total
 --------------------------------------------------------------------
    C  1    0.41829      2.00000     3.58172    0.00000     5.58171
    O  2   -0.31016      2.00000     6.31016    0.00000     8.31016
    O  3   -0.33676      2.00000     6.33676    0.00000     8.33676
    H  4    0.22720      0.00000     0.77280    0.00000     0.77280
    C  5   -0.20867      2.00000     4.20867    0.00000     6.20867
    H  6    0.06871      0.00000     0.93129    0.00000     0.93129
    H  7    0.07069      0.00000     0.92931    0.00000     0.92931
    H  8    0.07069      0.00000     0.92931    0.00000     0.92931
 ====================================================================
 * Total *  0.00000      7.99999    24.00001    0.00000    32.00000

 Normal termination of Gaussian 16 at Mon Nov 18 15:41:46 2024.
