 Gaussian 16, Revision C.01,
 Gaussian 16:  ES64L-G16RevC.01  3-Jul-2019

 -----------------------
 #RHF/4-31G Pop=NBO7Read
 -----------------------

 -----
 NBO-a
 -----
 Symbolic Z-matrix:
 Charge =  0 Multiplicity = 1

                         Standard orientation:
 ---------------------------------------------------------------------
 Center     Atomic      Atomic             Coordinates (Angstroms)
 Number     Number       Type             X           Y           Z
 ---------------------------------------------------------------------
      1          3           0        0.000000    0.000000   -1.055268
      2          9           0        0.000000    0.000000    0.351756
 ---------------------------------------------------------------------

 SCF Done:  E(RHF) =  -106.812771278     A.U. after   10 cycles

 The electronic state is 1-SG.
 Alpha  occ. eigenvalues --  -26.05678  -2.42845  -1.37759  -0.49323  -0.47381
 Alpha  occ. eigenvalues --   -0.47381
 Alpha virt. eigenvalues --    0.01427   0.08608   0.08608   0.14298   0.26465
 Alpha virt. eigenvalues --    0.28487   0.28487   0.48825   1.78229   1.78229
 Alpha virt. eigenvalues --    1.82934   2.35266

 Mulliken charges:
               1
     1  Li   0.714720
     2  F   -0.714720
 Sum of Mulliken charges =   0.00000

 Dipole moment (field-independent basis, Debye):
    X=              0.0000    Y=              0.0000    Z=             -5.8222  Tot=              5.8222
 Quadrupole moment (field-independent basis, Debye-Ang):
   XX=             -6.8860   YY=             -6.8860   ZZ=             -2.2005
   XY=              0.0000   XZ=              0.0000   YZ=              0.0000

 Summary of Natural Population Analysis:

                                     Natural Population
             Natural    ---------------------------------------------
  Atom No    Charge        Core      Valence    Rydberg      Total
 --------------------------------------------------------------------
   Li  1    0.91606      1.99981     0.00073    0.08340     2.08394
    F  2   -0.91606      1.99998     7.91596    0.00012     9.91606
 ====================================================================
 * Total *  0.00000      3.99979     7.91668    0.08352    12.00000

 Normal termination of Gaussian 16 at Wed Jul 24 13:56:58 2024.
