 Gaussian 16, Revision C.01,
 Gaussian 16:  ES64L-G16RevC.01  3-Jul-2019

 ----------------------------------------------------
 #OPT=VeryTight Int=UltraFine RHF/STO-3G Pop=NBO7Read
 ----------------------------------------------------

 ---------
 NBO-LiBeH
 ---------
 Symbolic Z-matrix:
 Charge =  0 Multiplicity = 1

 SCF Done:  E(RHF) =  -22.2971876382     A.U. after   10 cycles
 SCF Done:  E(RHF) =  -22.2971877068     A.U. after    6 cycles
 SCF Done:  E(RHF) =  -22.2971877100     A.U. after    4 cycles
 Optimization completed.
    -- Stationary point found.

                         Standard orientation:
 ---------------------------------------------------------------------
 Center     Atomic      Atomic             Coordinates (Angstroms)
 Number     Number       Type             X           Y           Z
 ---------------------------------------------------------------------
      1          4           0        0.000000    0.000000    0.731519
      2          3           0        0.000000    0.000000   -1.652391
      3          1           0        0.000000    0.000000    2.031098
 ---------------------------------------------------------------------

 The electronic state is 1-SG.
 Alpha  occ. eigenvalues --   -4.48943  -2.32843  -0.41527  -0.20787
 Alpha virt. eigenvalues --    0.09538   0.14237   0.14237   0.29260   0.29260
 Alpha virt. eigenvalues --    0.43531   0.79382

 Mulliken charges:
               1
     1  Be   0.182000
     2  Li  -0.105520
     3  H   -0.076479
 Sum of Mulliken charges =   0.00000

 Dipole moment (field-independent basis, Debye):
    X=              0.0000    Y=              0.0000    Z=             -3.8582  Tot=              3.8582
 Quadrupole moment (field-independent basis, Debye-Ang):
   XX=            -10.8235   YY=            -10.8235   ZZ=             -4.2378
   XY=              0.0000   XZ=              0.0000   YZ=              0.0000

 Summary of Natural Population Analysis:

                                     Natural Population
             Natural    ---------------------------------------------
  Atom No    Charge        Core      Valence    Rydberg      Total
 --------------------------------------------------------------------
   Be  1    0.50969      1.99996     1.19071    0.29965     3.49031
   Li  2    0.00786      1.99999     0.87360    0.11855     2.99214
    H  3   -0.51755      0.00000     1.51755    0.00000     1.51755
 ====================================================================
 * Total *  0.00000      3.99995     3.58185    0.41820     8.00000

 Normal termination of Gaussian 16 at Wed Jul 24 10:54:17 2024.
