 Gaussian 16, Revision C.01,
 Gaussian 16:  ES64L-G16RevC.01  3-Jul-2019

 -----------------------------------------------------------------
 #RHF/6-31G* int=nobasistransform Symmetry=None 5D 7F Pop=NBO7Read
 -----------------------------------------------------------------

 ---------
 mol92-NBO
 ---------
 Symbolic Z-matrix:
 Charge =  0 Multiplicity = 1

                          Input orientation:
 ---------------------------------------------------------------------
 Center     Atomic      Atomic             Coordinates (Angstroms)
 Number     Number       Type             X           Y           Z
 ---------------------------------------------------------------------
      1          6           0        0.000000    1.395248    0.000000
      2          6           0        1.208320    0.697624    0.000000
      3          6           0        1.208320   -0.697624    0.000000
      4          6           0        0.000000   -1.395248    0.000000
      5          6           0       -1.208320   -0.697624    0.000000
      6          6           0       -1.208320    0.697624    0.000000
      7          1           0        0.000000    2.482360    0.000000
      8          1           0        2.149787    1.241180    0.000000
      9          1           0        2.149787   -1.241180    0.000000
     10          1           0        0.000000   -2.482360    0.000000
     11          1           0       -2.149787   -1.241180    0.000000
     12          1           0       -2.149787    1.241180    0.000000
 ---------------------------------------------------------------------

 SCF Done:  E(RHF) =  -230.701406597     A.U. after    9 cycles

 Alpha  occ. eigenvalues --  -11.23195 -11.23141 -11.23141 -11.23023 -11.23023
 Alpha  occ. eigenvalues --  -11.22966  -1.14263  -1.00775  -1.00775  -0.81693
 Alpha  occ. eigenvalues --   -0.81693  -0.70166  -0.63792  -0.61092  -0.58120
 Alpha  occ. eigenvalues --   -0.58120  -0.49471  -0.48833  -0.48833  -0.32947
 Alpha  occ. eigenvalues --   -0.32947
 Alpha virt. eigenvalues --    0.14710   0.14710   0.23278   0.29218   0.29218
 Alpha virt. eigenvalues --    0.33059   0.33059   0.33465   0.36622   0.47123
 Alpha virt. eigenvalues --    0.47123   0.49635   0.49635   0.65968   0.74316

 Mulliken charges:
               1
     1  C   -0.201953
     2  C   -0.201953
     3  C   -0.201953
     4  C   -0.201953
     5  C   -0.201953
     6  C   -0.201953
     7  H    0.201953
     8  H    0.201953
     9  H    0.201953
    10  H    0.201953
    11  H    0.201953
    12  H    0.201953
 Sum of Mulliken charges =  -0.00000

 Dipole moment (field-independent basis, Debye):
    X=              0.0000    Y=              0.0000    Z=              0.0000  Tot=              0.0000
 Quadrupole moment (field-independent basis, Debye-Ang):
   XX=            -31.3776   YY=            -31.3776   ZZ=            -39.9755
   XY=             -0.0000   XZ=             -0.0000   YZ=              0.0000

 Summary of Natural Population Analysis:

                                     Natural Population
             Natural    ---------------------------------------------
  Atom No    Charge        Core      Valence    Rydberg      Total
 --------------------------------------------------------------------
    C  1   -0.23094      1.99999     4.20960    0.02135     6.23094
    C  2   -0.23094      1.99999     4.20960    0.02135     6.23094
    C  3   -0.23094      1.99999     4.20960    0.02135     6.23094
    C  4   -0.23094      1.99999     4.20960    0.02135     6.23094
    C  5   -0.23094      1.99999     4.20960    0.02135     6.23094
    C  6   -0.23094      1.99999     4.20960    0.02135     6.23094
    H  7    0.23094      0.00000     0.76847    0.00059     0.76906
    H  8    0.23094      0.00000     0.76847    0.00059     0.76906
    H  9    0.23094      0.00000     0.76847    0.00059     0.76906
    H 10    0.23094      0.00000     0.76847    0.00059     0.76906
    H 11    0.23094      0.00000     0.76847    0.00059     0.76906
    H 12    0.23094      0.00000     0.76847    0.00059     0.76906
 ====================================================================
 * Total *  0.00000     11.99997    29.86840    0.13163    42.00000

 Normal termination of Gaussian 16 at Mon Nov 18 16:40:45 2024.
