 Gaussian 16, Revision C.01,
 Gaussian 16:  ES64L-G16RevC.01  3-Jul-2019

 -----------------------------------------------------------------
 #RHF/6-31G* int=nobasistransform Symmetry=None 5D 7F Pop=NBO7Read
 -----------------------------------------------------------------

 ---------
 mol59-NBO
 ---------
 Symbolic Z-matrix:
 Charge =  0 Multiplicity = 1

                          Input orientation:
 ---------------------------------------------------------------------
 Center     Atomic      Atomic             Coordinates (Angstroms)
 Number     Number       Type             X           Y           Z
 ---------------------------------------------------------------------
      1          6           0        0.000000    0.000000    0.000000
      2          9           0        0.767436    0.767436    0.767436
      3          9           0       -0.767436   -0.767436    0.767436
      4          9           0       -0.767436    0.767436   -0.767436
      5          9           0        0.767436   -0.767436   -0.767436
 ---------------------------------------------------------------------

 SCF Done:  E(RHF) =  -435.637411330     A.U. after    9 cycles

 Alpha  occ. eigenvalues --  -26.37315 -26.37315 -26.37315 -26.37314 -11.61894
 Alpha  occ. eigenvalues --   -1.79291  -1.67045  -1.67045  -1.67045  -1.00261
 Alpha  occ. eigenvalues --   -0.87826  -0.87826  -0.87826  -0.75416  -0.75416
 Alpha  occ. eigenvalues --   -0.70173  -0.70173  -0.70173  -0.67585  -0.67585
 Alpha  occ. eigenvalues --   -0.67585
 Alpha virt. eigenvalues --    0.40543   0.40699   0.40699   0.40699   0.67563
 Alpha virt. eigenvalues --    0.67563   0.67563   0.68016   1.28497   1.28497
 Alpha virt. eigenvalues --    1.41523   1.41523   1.41523   1.46286   1.57625

 Mulliken charges:
               1
     1  C    1.527145
     2  F   -0.381786
     3  F   -0.381786
     4  F   -0.381786
     5  F   -0.381786
 Sum of Mulliken charges =  -0.00000

 Dipole moment (field-independent basis, Debye):
    X=              0.0000    Y=             -0.0000    Z=             -0.0000  Tot=              0.0000
 Quadrupole moment (field-independent basis, Debye-Ang):
   XX=            -25.1044   YY=            -25.1044   ZZ=            -25.1044
   XY=             -0.0000   XZ=             -0.0000   YZ=              0.0000

 Summary of Natural Population Analysis:

                                     Natural Population
             Natural    ---------------------------------------------
  Atom No    Charge        Core      Valence    Rydberg      Total
 --------------------------------------------------------------------
    C  1    1.65713      2.00000     2.26707    0.07581     4.34287
    F  2   -0.41428      1.99999     7.40267    0.01162     9.41428
    F  3   -0.41428      1.99999     7.40267    0.01162     9.41428
    F  4   -0.41428      1.99999     7.40267    0.01162     9.41428
    F  5   -0.41428      1.99999     7.40267    0.01162     9.41428
 ====================================================================
 * Total *  0.00000      9.99997    31.87774    0.12228    42.00000

 Normal termination of Gaussian 16 at Mon Nov 18 16:40:41 2024.
