 Gaussian 16, Revision C.01,
 Gaussian 16:  ES64L-G16RevC.01  3-Jul-2019

 -----------------------------------------------------------------
 #RHF/6-31G* int=nobasistransform Symmetry=None 5D 7F Pop=NBO7Read
 -----------------------------------------------------------------

 ----------
 mol112-NBO
 ----------
 Symbolic Z-matrix:
 Charge =  0 Multiplicity = 1

                          Input orientation:
 ---------------------------------------------------------------------
 Center     Atomic      Atomic             Coordinates (Angstroms)
 Number     Number       Type             X           Y           Z
 ---------------------------------------------------------------------
      1          6           0        0.000000    0.756430    0.000000
      2          6           0        0.000000   -0.756430    0.000000
      3          8           0        1.046090    1.389916    0.000000
      4          1           0       -0.999940    1.228191    0.000000
      5          8           0       -1.046090   -1.389916    0.000000
      6          1           0        0.999940   -1.228191    0.000000
 ---------------------------------------------------------------------

 SCF Done:  E(RHF) =  -226.585331997     A.U. after   11 cycles

 Alpha  occ. eigenvalues --  -20.61414 -20.61414 -11.36786 -11.36725  -1.43317
 Alpha  occ. eigenvalues --   -1.41570  -0.96973  -0.82412  -0.70127  -0.70100
 Alpha  occ. eigenvalues --   -0.65093  -0.58692  -0.52081  -0.52053  -0.44041
 Alpha virt. eigenvalues --    0.04465   0.21374   0.24623   0.28717   0.34741
 Alpha virt. eigenvalues --    0.44546   0.49932   0.70813   0.76123   0.78051
 Alpha virt. eigenvalues --    0.81260   0.89524   0.93845   1.03054   1.03908

 Mulliken charges:
               1
     1  C    0.256463
     2  C    0.256463
     3  O   -0.467212
     4  H    0.210750
     5  O   -0.467212
     6  H    0.210750
 Sum of Mulliken charges =  -0.00000

 Dipole moment (field-independent basis, Debye):
    X=             -0.0000    Y=             -0.0000    Z=             -0.0000  Tot=              0.0000
 Quadrupole moment (field-independent basis, Debye-Ang):
   XX=            -25.5791   YY=            -26.9624   ZZ=            -21.1942
   XY=             -6.8232   XZ=             -0.0000   YZ=             -0.0000

 Summary of Natural Population Analysis:

                                     Natural Population
             Natural    ---------------------------------------------
  Atom No    Charge        Core      Valence    Rydberg      Total
 --------------------------------------------------------------------
    C  1    0.39543      1.99999     3.56498    0.03960     5.60457
    C  2    0.39543      1.99999     3.56498    0.03960     5.60457
    O  3   -0.56466      1.99999     6.54326    0.02141     8.56466
    H  4    0.16924      0.00000     0.82801    0.00275     0.83076
    O  5   -0.56466      1.99999     6.54326    0.02141     8.56466
    H  6    0.16924      0.00000     0.82801    0.00275     0.83076
 ====================================================================
 * Total *  0.00000      7.99997    21.87251    0.12752    30.00000

 Normal termination of Gaussian 16 at Mon Nov 18 16:41:12 2024.
