 Gaussian 16, Revision C.01,
 Gaussian 16:  ES64L-G16RevC.01  3-Jul-2019

 -----------------------------------------------------------------
 #RHF/6-31G* int=nobasistransform Symmetry=None 5D 7F Pop=NBO7Read
 -----------------------------------------------------------------

 ---------
 mol89-NBO
 ---------
 Symbolic Z-matrix:
 Charge =  0 Multiplicity = 1

                          Input orientation:
 ---------------------------------------------------------------------
 Center     Atomic      Atomic             Coordinates (Angstroms)
 Number     Number       Type             X           Y           Z
 ---------------------------------------------------------------------
      1          6           0        0.702581    1.820873    0.000000
      2          6           0        0.702581    0.296325    0.000000
      3          6           0       -0.702581   -0.296325    0.000000
      4          6           0       -0.702581   -1.820873    0.000000
      5          1           0        1.719809    2.222340    0.000000
      6          1           0       -1.719809   -2.222340    0.000000
      7          1           0        0.188154    2.210362    0.883614
      8          1           0        0.188154    2.210362   -0.883614
      9          1           0       -0.188154   -2.210362    0.883614
     10          1           0       -0.188154   -2.210362   -0.883614
     11          1           0        1.247707   -0.072660   -0.877569
     12          1           0        1.247707   -0.072660    0.877569
     13          1           0       -1.247707    0.072660   -0.877569
     14          1           0       -1.247707    0.072660    0.877569
 ---------------------------------------------------------------------

 SCF Done:  E(RHF) =  -157.297068841     A.U. after   10 cycles

 Alpha  occ. eigenvalues --  -11.21289 -11.21229 -11.20677 -11.20677  -1.07064
 Alpha  occ. eigenvalues --   -0.97990  -0.85961  -0.78629  -0.63799  -0.58384
 Alpha  occ. eigenvalues --   -0.57497  -0.56676  -0.51380  -0.49388  -0.46891
 Alpha  occ. eigenvalues --   -0.45997  -0.45598
 Alpha virt. eigenvalues --    0.23180   0.26111   0.28134   0.29177   0.32005
 Alpha virt. eigenvalues --    0.33581   0.33667   0.33924   0.35179   0.35198
 Alpha virt. eigenvalues --    0.42160   0.42452   0.44302   0.70061   0.70073

 Mulliken charges:
               1
     1  C   -0.488270
     2  C   -0.304979
     3  C   -0.304979
     4  C   -0.488270
     5  H    0.164120
     6  H    0.164120
     7  H    0.159344
     8  H    0.159344
     9  H    0.159344
    10  H    0.159344
    11  H    0.155221
    12  H    0.155221
    13  H    0.155221
    14  H    0.155221
 Sum of Mulliken charges =  -0.00000

 Dipole moment (field-independent basis, Debye):
    X=              0.0000    Y=             -0.0000    Z=              0.0000  Tot=              0.0000
 Quadrupole moment (field-independent basis, Debye-Ang):
   XX=            -28.6681   YY=            -29.5820   ZZ=            -28.1614
   XY=             -0.0758   XZ=             -0.0000   YZ=              0.0000

 Summary of Natural Population Analysis:

                                     Natural Population
             Natural    ---------------------------------------------
  Atom No    Charge        Core      Valence    Rydberg      Total
 --------------------------------------------------------------------
    C  1   -0.63522      1.99999     4.62162    0.01361     6.63522
    C  2   -0.42920      1.99999     4.41319    0.01602     6.42920
    C  3   -0.42920      1.99999     4.41319    0.01602     6.42920
    C  4   -0.63522      1.99999     4.62162    0.01361     6.63522
    H  5    0.21811      0.00000     0.78103    0.00086     0.78189
    H  6    0.21811      0.00000     0.78103    0.00086     0.78189
    H  7    0.21130      0.00000     0.78753    0.00117     0.78870
    H  8    0.21130      0.00000     0.78753    0.00117     0.78870
    H  9    0.21130      0.00000     0.78753    0.00117     0.78870
    H 10    0.21130      0.00000     0.78753    0.00117     0.78870
    H 11    0.21186      0.00000     0.78637    0.00177     0.78814
    H 12    0.21186      0.00000     0.78637    0.00177     0.78814
    H 13    0.21186      0.00000     0.78637    0.00177     0.78814
    H 14    0.21186      0.00000     0.78637    0.00177     0.78814
 ====================================================================
 * Total *  0.00000      7.99997    25.92727    0.07276    34.00000

 Normal termination of Gaussian 16 at Mon Nov 18 16:40:43 2024.
