 Gaussian 16, Revision C.01,
 Gaussian 16:  ES64L-G16RevC.01  3-Jul-2019

 -----------------------------------------------------------------
 #RHF/STO-3G int=nobasistransform Symmetry=None 5D 7F Pop=NBO7Read
 -----------------------------------------------------------------

 ----------
 mol128-NBO
 ----------
 Symbolic Z-matrix:
 Charge =  0 Multiplicity = 1

                          Input orientation:
 ---------------------------------------------------------------------
 Center     Atomic      Atomic             Coordinates (Angstroms)
 Number     Number       Type             X           Y           Z
 ---------------------------------------------------------------------
      1          8           0        0.027191    1.363691   -0.167516
      2          6           0       -0.000926    0.036459    0.370128
      3          1           0        0.859465    1.775647    0.121307
      4          1           0        0.007371    0.082145    1.470506
      5          6           0       -1.313275   -0.563514   -0.088979
      6          6           0        1.200721   -0.764480   -0.104920
      7          1           0       -1.334005   -0.607253   -1.181009
      8          1           0        1.202843   -0.807817   -1.197189
      9          1           0       -2.147812    0.054993    0.247676
     10          1           0        2.136462   -0.299324    0.223164
     11          1           0       -1.438709   -1.574275    0.308340
     12          1           0        1.177736   -1.784436    0.289967
 ---------------------------------------------------------------------

 SCF Done:  E(RHF) =  -190.713686970     A.U. after   11 cycles

 Alpha  occ. eigenvalues --  -20.24167 -11.09334 -11.04002 -11.03569  -1.27861
 Alpha  occ. eigenvalues --   -0.99890  -0.90128  -0.75203  -0.63043  -0.58010
 Alpha  occ. eigenvalues --   -0.55744  -0.51248  -0.49134  -0.47039  -0.45325
 Alpha  occ. eigenvalues --   -0.39416  -0.34500
 Alpha virt. eigenvalues --    0.54745   0.60801   0.64211   0.69763   0.70116
 Alpha virt. eigenvalues --    0.71787   0.75130   0.75771   0.76654   0.78731
 Alpha virt. eigenvalues --    0.80909

 Mulliken charges:
               1
     1  O   -0.307440
     2  C    0.088200
     3  H    0.174427
     4  H    0.041707
     5  C   -0.177750
     6  C   -0.187144
     7  H    0.064239
     8  H    0.063929
     9  H    0.066945
    10  H    0.053123
    11  H    0.058340
    12  H    0.061425
 Sum of Mulliken charges =  -0.00000

 Dipole moment (field-independent basis, Debye):
    X=              1.0069    Y=             -0.6705    Z=              0.7644  Tot=              1.4309
 Quadrupole moment (field-independent basis, Debye-Ang):
   XX=            -23.9828   YY=            -25.2721   ZZ=            -24.7423
   XY=              2.0287   XZ=              0.1687   YZ=              0.9763

 Summary of Natural Population Analysis:

                                     Natural Population
             Natural    ---------------------------------------------
  Atom No    Charge        Core      Valence    Rydberg      Total
 --------------------------------------------------------------------
    O  1   -0.33034      2.00000     6.33035    0.00000     8.33034
    C  2    0.16647      1.99999     3.83354    0.00000     5.83353
    H  3    0.18826      0.00000     0.81174    0.00000     0.81174
    H  4    0.00884      0.00000     0.99116    0.00000     0.99116
    C  5   -0.15125      2.00000     4.15126    0.00000     6.15125
    C  6   -0.16012      2.00000     4.16012    0.00000     6.16012
    H  7    0.04866      0.00000     0.95134    0.00000     0.95134
    H  8    0.04825      0.00000     0.95175    0.00000     0.95175
    H  9    0.05117      0.00000     0.94883    0.00000     0.94883
    H 10    0.03899      0.00000     0.96101    0.00000     0.96101
    H 11    0.04401      0.00000     0.95599    0.00000     0.95599
    H 12    0.04707      0.00000     0.95293    0.00000     0.95293
 ====================================================================
 * Total *  0.00000      7.99998    26.00002    0.00000    34.00000

 Normal termination of Gaussian 16 at Mon Nov 18 15:41:48 2024.
