 Gaussian 16, Revision C.01,
 Gaussian 16:  ES64L-G16RevC.01  3-Jul-2019

 -----------------------------------------------------------------
 #RHF/STO-3G int=nobasistransform Symmetry=None 5D 7F Pop=NBO7Read
 -----------------------------------------------------------------

 ---------
 mol20-NBO
 ---------
 Symbolic Z-matrix:
 Charge =  0 Multiplicity = 1

                          Input orientation:
 ---------------------------------------------------------------------
 Center     Atomic      Atomic             Coordinates (Angstroms)
 Number     Number       Type             X           Y           Z
 ---------------------------------------------------------------------
      1         17           0        0.000000    0.000000    0.071110
      2          1           0        0.000000    0.000000   -1.208868
 ---------------------------------------------------------------------

 SCF Done:  E(RHF) =  -455.135127984     A.U. after    6 cycles

 Alpha  occ. eigenvalues -- -103.72203 -10.40350  -7.84832  -7.84167  -7.84167
 Alpha  occ. eigenvalues --   -1.04236  -0.56335  -0.42276  -0.42276
 Alpha virt. eigenvalues --    0.40050

 Mulliken charges:
               1
     1  Cl  -0.172017
     2  H    0.172017
 Sum of Mulliken charges =   0.00000

 Dipole moment (field-independent basis, Debye):
    X=             -0.0000    Y=             -0.0000    Z=             -1.7383  Tot=              1.7383
 Quadrupole moment (field-independent basis, Debye-Ang):
   XX=            -12.5563   YY=            -12.5563   ZZ=             -9.9707
   XY=              0.0000   XZ=              0.0000   YZ=             -0.0000

 Summary of Natural Population Analysis:

                                     Natural Population
             Natural    ---------------------------------------------
  Atom No    Charge        Core      Valence    Rydberg      Total
 --------------------------------------------------------------------
   Cl  1   -0.20541     10.00000     7.20541    0.00000    17.20541
    H  2    0.20541      0.00000     0.79459    0.00000     0.79459
 ====================================================================
 * Total *  0.00000     10.00000     8.00000    0.00000    18.00000

 Normal termination of Gaussian 16 at Mon Nov 18 15:41:32 2024.
