 Gaussian 16, Revision C.01,
 Gaussian 16:  ES64L-G16RevC.01  3-Jul-2019

 -----------------------------------------------------------------
 #RHF/STO-3G int=nobasistransform Symmetry=None 5D 7F Pop=NBO7Read
 -----------------------------------------------------------------

 ----------
 mol120-NBO
 ----------
 Symbolic Z-matrix:
 Charge =  0 Multiplicity = 1

                          Input orientation:
 ---------------------------------------------------------------------
 Center     Atomic      Atomic             Coordinates (Angstroms)
 Number     Number       Type             X           Y           Z
 ---------------------------------------------------------------------
      1          6           0        0.000000    0.807636    0.000000
      2          6           0        1.505827    0.647832    0.000000
      3         17           0       -0.823553   -0.779970    0.000000
      4          1           0       -0.344979    1.341649    0.885248
      5          1           0       -0.344979    1.341649   -0.885248
      6          1           0        1.976903    1.634877    0.000000
      7          1           0        1.839246    0.104250    0.885398
      8          1           0        1.839246    0.104250   -0.885398
 ---------------------------------------------------------------------

 SCF Done:  E(RHF) =  -532.305405226     A.U. after   10 cycles

 Alpha  occ. eigenvalues -- -103.67312 -11.12672 -11.06871 -10.35812  -7.80221
 Alpha  occ. eigenvalues --   -7.79671  -7.79668  -1.08247  -0.95002  -0.80772
 Alpha  occ. eigenvalues --   -0.62783  -0.58004  -0.53133  -0.50306  -0.45569
 Alpha  occ. eigenvalues --   -0.37424  -0.37417
 Alpha virt. eigenvalues --    0.37275   0.60698   0.65177   0.66197   0.72170
 Alpha virt. eigenvalues --    0.73937   0.75222

 Mulliken charges:
               1
     1  C   -0.057450
     2  C   -0.171729
     3  Cl  -0.184644
     4  H    0.094285
     5  H    0.094285
     6  H    0.071779
     7  H    0.076737
     8  H    0.076737
 Sum of Mulliken charges =  -0.00000

 Dipole moment (field-independent basis, Debye):
    X=              1.2956    Y=              2.0890    Z=              0.0000  Tot=              2.4581
 Quadrupole moment (field-independent basis, Debye-Ang):
   XX=            -25.4668   YY=            -24.7152   ZZ=            -24.4646
   XY=             -0.8445   XZ=              0.0000   YZ=             -0.0000

 Summary of Natural Population Analysis:

                                     Natural Population
             Natural    ---------------------------------------------
  Atom No    Charge        Core      Valence    Rydberg      Total
 --------------------------------------------------------------------
    C  1    0.05468      2.00000     3.94532    0.00000     5.94532
    C  2   -0.14477      2.00000     4.14477    0.00000     6.14477
   Cl  3   -0.20430     10.00000     7.20430    0.00000    17.20430
    H  4    0.05947      0.00000     0.94053    0.00000     0.94053
    H  5    0.05947      0.00000     0.94053    0.00000     0.94053
    H  6    0.05644      0.00000     0.94356    0.00000     0.94356
    H  7    0.05950      0.00000     0.94050    0.00000     0.94050
    H  8    0.05950      0.00000     0.94050    0.00000     0.94050
 ====================================================================
 * Total *  0.00000     13.99999    20.00001    0.00000    34.00000

 Normal termination of Gaussian 16 at Mon Nov 18 15:41:46 2024.
