 Gaussian 16, Revision C.01,
 Gaussian 16:  ES64L-G16RevC.01  3-Jul-2019

 -----------------------------------------------------------------
 #RHF/STO-3G int=nobasistransform Symmetry=None 5D 7F Pop=NBO7Read
 -----------------------------------------------------------------

 ---------
 mol19-NBO
 ---------
 Symbolic Z-matrix:
 Charge =  0 Multiplicity = 1

                          Input orientation:
 ---------------------------------------------------------------------
 Center     Atomic      Atomic             Coordinates (Angstroms)
 Number     Number       Type             X           Y           Z
 ---------------------------------------------------------------------
      1         16           0        0.000000    0.000000    0.102135
      2          1           0        0.000000    0.974269   -0.817083
      3          1           0        0.000000   -0.974269   -0.817083
 ---------------------------------------------------------------------

 SCF Done:  E(RHF) =  -394.311433583     A.U. after    7 cycles

 Alpha  occ. eigenvalues --  -90.74503  -8.64738  -6.27988  -6.27770  -6.27429
 Alpha  occ. eigenvalues --   -0.89434  -0.50504  -0.39202  -0.27742
 Alpha virt. eigenvalues --    0.46974   0.53205

 Mulliken charges:
               1
     1  S    0.072096
     2  H   -0.036048
     3  H   -0.036048
 Sum of Mulliken charges =  -0.00000

 Dipole moment (field-independent basis, Debye):
    X=             -0.0000    Y=             -0.0000    Z=             -1.0268  Tot=              1.0268
 Quadrupole moment (field-independent basis, Debye-Ang):
   XX=            -13.2077   YY=            -11.3791   ZZ=            -12.0901
   XY=             -0.0000   XZ=             -0.0000   YZ=             -0.0000

 Summary of Natural Population Analysis:

                                     Natural Population
             Natural    ---------------------------------------------
  Atom No    Charge        Core      Valence    Rydberg      Total
 --------------------------------------------------------------------
    S  1    0.03667      9.99999     5.96335    0.00000    15.96333
    H  2   -0.01833      0.00000     1.01833    0.00000     1.01833
    H  3   -0.01833      0.00000     1.01833    0.00000     1.01833
 ====================================================================
 * Total *  0.00000      9.99999     8.00001    0.00000    18.00000

 Normal termination of Gaussian 16 at Mon Nov 18 15:41:34 2024.
