 Gaussian 16, Revision C.01,
 Gaussian 16:  ES64L-G16RevC.01  3-Jul-2019

 -----------------------------------------------------------------
 #RHF/STO-3G int=nobasistransform Symmetry=None 5D 7F Pop=NBO7Read
 -----------------------------------------------------------------

 ---------
 mol87-NBO
 ---------
 Symbolic Z-matrix:
 Charge =  0 Multiplicity = 1

                          Input orientation:
 ---------------------------------------------------------------------
 Center     Atomic      Atomic             Coordinates (Angstroms)
 Number     Number       Type             X           Y           Z
 ---------------------------------------------------------------------
      1          6           0        0.000000    1.071142    0.147626
      2          6           0        0.000000   -1.071142    0.147626
      3          6           0       -1.071142    0.000000   -0.147626
      4          6           0        1.071142    0.000000   -0.147626
      5          1           0        0.000000    1.986858   -0.450077
      6          1           0        0.000000    1.342921    1.207520
      7          1           0        0.000000   -1.986858   -0.450077
      8          1           0        0.000000   -1.342921    1.207520
      9          1           0       -1.986858    0.000000    0.450077
     10          1           0       -1.342921    0.000000   -1.207520
     11          1           0        1.986858    0.000000    0.450077
     12          1           0        1.342921    0.000000   -1.207520
 ---------------------------------------------------------------------

 SCF Done:  E(RHF) =  -154.270734277     A.U. after    8 cycles

 Alpha  occ. eigenvalues --  -11.03404 -11.03387 -11.03387 -11.03352  -1.08667
 Alpha  occ. eigenvalues --   -0.85502  -0.85502  -0.71770  -0.61858  -0.60870
 Alpha  occ. eigenvalues --   -0.50325  -0.50325  -0.44765  -0.41825  -0.39810
 Alpha  occ. eigenvalues --   -0.39810
 Alpha virt. eigenvalues --    0.55873   0.59917   0.59917   0.63243   0.66114
 Alpha virt. eigenvalues --    0.73690   0.73690   0.76013   0.76484   0.76484
 Alpha virt. eigenvalues --    0.86602   0.90795

 Mulliken charges:
               1
     1  C   -0.102810
     2  C   -0.102810
     3  C   -0.102810
     4  C   -0.102810
     5  H    0.049625
     6  H    0.053185
     7  H    0.049625
     8  H    0.053185
     9  H    0.049625
    10  H    0.053185
    11  H    0.049625
    12  H    0.053185
 Sum of Mulliken charges =  -0.00000

 Dipole moment (field-independent basis, Debye):
    X=             -0.0000    Y=             -0.0000    Z=             -0.0000  Tot=              0.0000
 Quadrupole moment (field-independent basis, Debye-Ang):
   XX=            -25.7589   YY=            -25.7589   ZZ=            -24.6315
   XY=             -0.0000   XZ=              0.0000   YZ=              0.0000

 Summary of Natural Population Analysis:

                                     Natural Population
             Natural    ---------------------------------------------
  Atom No    Charge        Core      Valence    Rydberg      Total
 --------------------------------------------------------------------
    C  1   -0.06114      2.00000     4.06114    0.00000     6.06114
    C  2   -0.06114      2.00000     4.06114    0.00000     6.06114
    C  3   -0.06114      2.00000     4.06114    0.00000     6.06114
    C  4   -0.06114      2.00000     4.06114    0.00000     6.06114
    H  5    0.02893      0.00000     0.97107    0.00000     0.97107
    H  6    0.03221      0.00000     0.96779    0.00000     0.96779
    H  7    0.02893      0.00000     0.97107    0.00000     0.97107
    H  8    0.03221      0.00000     0.96779    0.00000     0.96779
    H  9    0.02893      0.00000     0.97107    0.00000     0.97107
    H 10    0.03221      0.00000     0.96779    0.00000     0.96779
    H 11    0.02893      0.00000     0.97107    0.00000     0.97107
    H 12    0.03221      0.00000     0.96779    0.00000     0.96779
 ====================================================================
 * Total *  0.00000      7.99999    24.00001    0.00000    32.00000

 Normal termination of Gaussian 16 at Mon Nov 18 15:41:38 2024.
