 Gaussian 16, Revision C.01,
 Gaussian 16:  ES64L-G16RevC.01  3-Jul-2019

 -----------------------------------------------------------------
 #RHF/6-31G* int=nobasistransform Symmetry=None 5D 7F Pop=NBO7Read
 -----------------------------------------------------------------

 ---------
 mol75-NBO
 ---------
 Symbolic Z-matrix:
 Charge =  0 Multiplicity = 1

                          Input orientation:
 ---------------------------------------------------------------------
 Center     Atomic      Atomic             Coordinates (Angstroms)
 Number     Number       Type             X           Y           Z
 ---------------------------------------------------------------------
      1          6           0        0.000000    0.000000   -0.326350
      2          6           0        0.000000    0.000000    1.150830
      3          9           0        0.000000    1.257579   -0.787225
      4          9           0        1.089096   -0.628790   -0.787225
      5          9           0       -1.089096   -0.628790   -0.787225
      6          7           0        0.000000    0.000000    2.329741
 ---------------------------------------------------------------------

 SCF Done:  E(RHF) =  -428.468728540     A.U. after   12 cycles

 Alpha  occ. eigenvalues --  -26.38370 -26.38370 -26.38370 -15.65593 -11.59088
 Alpha  occ. eigenvalues --  -11.33803  -1.77227  -1.67643  -1.67643  -1.26231
 Alpha  occ. eigenvalues --   -1.06235  -0.91151  -0.86483  -0.86483  -0.74620
 Alpha  occ. eigenvalues --   -0.74620  -0.70128  -0.70128  -0.68901  -0.68528
 Alpha  occ. eigenvalues --   -0.60559  -0.51744  -0.51744
 Alpha virt. eigenvalues --    0.13116   0.13116   0.29246   0.39480   0.43123
 Alpha virt. eigenvalues --    0.43123   0.51634   0.65485   0.69028   0.69028
 Alpha virt. eigenvalues --    0.80900   0.80900   0.81427   0.87429   1.04337

 Mulliken charges:
               1
     1  C    1.430319
     2  C    0.094107
     3  F   -0.393883
     4  F   -0.393884
     5  F   -0.393884
     6  N   -0.342775
 Sum of Mulliken charges =  -0.00000

 Dipole moment (field-independent basis, Debye):
    X=              0.0000    Y=              0.0000    Z=             -1.2969  Tot=              1.2969
 Quadrupole moment (field-independent basis, Debye-Ang):
   XX=            -31.2237   YY=            -31.2237   ZZ=            -37.4958
   XY=             -0.0000   XZ=             -0.0000   YZ=             -0.0000

 Summary of Natural Population Analysis:

                                     Natural Population
             Natural    ---------------------------------------------
  Atom No    Charge        Core      Valence    Rydberg      Total
 --------------------------------------------------------------------
    C  1    1.25313      1.99999     2.69113    0.05574     4.74687
    C  2    0.19353      1.99999     3.77570    0.03078     5.80647
    F  3   -0.39619      1.99999     7.38510    0.01110     9.39619
    F  4   -0.39619      1.99999     7.38510    0.01110     9.39619
    F  5   -0.39619      1.99999     7.38510    0.01110     9.39619
    N  6   -0.25808      1.99999     5.23557    0.02252     7.25808
 ====================================================================
 * Total *  0.00000     11.99996    33.85769    0.14236    46.00000

 Normal termination of Gaussian 16 at Mon Nov 18 16:40:44 2024.
