 Gaussian 16, Revision C.01,
 Gaussian 16:  ES64L-G16RevC.01  3-Jul-2019

 -----------------------------------------------------------------
 #RHF/6-31G* int=nobasistransform Symmetry=None 5D 7F Pop=NBO7Read
 -----------------------------------------------------------------

 ----------
 mol116-NBO
 ----------
 Symbolic Z-matrix:
 Charge =  0 Multiplicity = 1

                          Input orientation:
 ---------------------------------------------------------------------
 Center     Atomic      Atomic             Coordinates (Angstroms)
 Number     Number       Type             X           Y           Z
 ---------------------------------------------------------------------
      1         16           0        0.000002    0.231838   -0.438643
      2          8           0        0.000020    1.500742    0.379819
      3          6           0        1.339528   -0.809022    0.180717
      4          6           0       -1.339548   -0.808992    0.180718
      5          1           0        1.255835   -0.896385    1.266825
      6          1           0       -2.279404   -0.313924   -0.068674
      7          1           0        1.304407   -1.793327   -0.292589
      8          1           0        2.279395   -0.313974   -0.068674
      9          1           0       -1.304447   -1.793298   -0.292587
     10          1           0       -1.255857   -0.896355    1.266826
 ---------------------------------------------------------------------

 SCF Done:  E(RHF) =  -551.533301506     A.U. after   13 cycles

 Alpha  occ. eigenvalues --  -92.05634 -20.49923 -11.25919 -11.25917  -9.05668
 Alpha  occ. eigenvalues --   -6.73897  -6.73884  -6.73662  -1.32156  -1.06626
 Alpha  occ. eigenvalues --   -0.97630  -0.81790  -0.64109  -0.62760  -0.62081
 Alpha  occ. eigenvalues --   -0.58618  -0.55622  -0.54396  -0.50500  -0.40829
 Alpha  occ. eigenvalues --   -0.36131
 Alpha virt. eigenvalues --    0.19598   0.20648   0.21500   0.25902   0.26397
 Alpha virt. eigenvalues --    0.30174   0.30270   0.31320   0.33302   0.50877
 Alpha virt. eigenvalues --    0.53520   0.61932   0.64877   0.66309   0.71780

 Mulliken charges:
               1
     1  S    0.996671
     2  O   -0.813525
     3  C   -0.726670
     4  C   -0.726670
     5  H    0.217619
     6  H    0.223813
     7  H    0.193664
     8  H    0.223813
     9  H    0.193665
    10  H    0.217619
 Sum of Mulliken charges =  -0.00000

 Dipole moment (field-independent basis, Debye):
    X=             -0.0001    Y=             -4.5619    Z=             -0.7755  Tot=              4.6274
 Quadrupole moment (field-independent basis, Debye-Ang):
   XX=            -28.5579   YY=            -37.4001   ZZ=            -32.9827
   XY=             -0.0001   XZ=             -0.0000   YZ=             -1.9176

 Summary of Natural Population Analysis:

                                     Natural Population
             Natural    ---------------------------------------------
  Atom No    Charge        Core      Valence    Rydberg      Total
 --------------------------------------------------------------------
    S  1    1.36391      9.99998     4.50981    0.12630    14.63609
    O  2   -1.07060      1.99999     7.04612    0.02449     9.07060
    C  3   -0.87473      1.99999     4.85823    0.01651     6.87473
    C  4   -0.87473      1.99999     4.85823    0.01651     6.87473
    H  5    0.24075      0.00000     0.75621    0.00304     0.75925
    H  6    0.25263      0.00000     0.74655    0.00082     0.74737
    H  7    0.23470      0.00000     0.76419    0.00111     0.76530
    H  8    0.25263      0.00000     0.74655    0.00082     0.74737
    H  9    0.23470      0.00000     0.76419    0.00111     0.76530
    H 10    0.24075      0.00000     0.75621    0.00304     0.75925
 ====================================================================
 * Total *  0.00000     15.99995    25.80628    0.19377    42.00000

 Normal termination of Gaussian 16 at Mon Nov 18 16:41:11 2024.
