 Gaussian 16, Revision C.01,
 Gaussian 16:  ES64L-G16RevC.01  3-Jul-2019

 -----------------------------------------------------------------
 #RHF/6-31G* int=nobasistransform Symmetry=None 5D 7F Pop=NBO7Read
 -----------------------------------------------------------------

 ---------
 mol58-NBO
 ---------
 Symbolic Z-matrix:
 Charge =  0 Multiplicity = 1

                          Input orientation:
 ---------------------------------------------------------------------
 Center     Atomic      Atomic             Coordinates (Angstroms)
 Number     Number       Type             X           Y           Z
 ---------------------------------------------------------------------
      1         13           0        0.000000    0.000000    0.000000
      2         17           0        0.000000    2.069041    0.000000
      3         17           0        1.791842   -1.034520    0.000000
      4         17           0       -1.791842   -1.034520    0.000000
 ---------------------------------------------------------------------

 SCF Done:  E(RHF) =  -1620.57093724     A.U. after   10 cycles

 Alpha  occ. eigenvalues -- -104.82853-104.82853-104.82852 -58.58195 -10.56979
 Alpha  occ. eigenvalues --  -10.56979 -10.56977  -8.03762  -8.03762  -8.03761
 Alpha  occ. eigenvalues --   -8.03567  -8.03566  -8.03566  -8.03543  -8.03543
 Alpha  occ. eigenvalues --   -8.03543  -5.00126  -3.31688  -3.31514  -3.31514
 Alpha  occ. eigenvalues --   -1.12105  -1.10066  -1.10066  -0.62268  -0.55042
 Alpha  occ. eigenvalues --   -0.55042  -0.51313  -0.49516  -0.49516  -0.48694
 Alpha  occ. eigenvalues --   -0.48694  -0.46782
 Alpha virt. eigenvalues --    0.05959   0.05980   0.15777   0.15777   0.22444
 Alpha virt. eigenvalues --    0.25283   0.33482   0.33482   0.49992   0.49992
 Alpha virt. eigenvalues --    0.51736   0.54834   0.54834   0.63104   0.63104

 Mulliken charges:
               1
     1  Al   0.838387
     2  Cl  -0.279462
     3  Cl  -0.279462
     4  Cl  -0.279462
 Sum of Mulliken charges =  -0.00000

 Dipole moment (field-independent basis, Debye):
    X=             -0.0000    Y=             -0.0000    Z=             -0.0000  Tot=              0.0000
 Quadrupole moment (field-independent basis, Debye-Ang):
   XX=            -55.7475   YY=            -55.7475   ZZ=            -46.5981
   XY=              0.0000   XZ=             -0.0000   YZ=             -0.0000

 Summary of Natural Population Analysis:

                                     Natural Population
             Natural    ---------------------------------------------
  Atom No    Charge        Core      Valence    Rydberg      Total
 --------------------------------------------------------------------
   Al  1    1.66472      9.99996     1.26348    0.07185    11.33528
   Cl  2   -0.55491      9.99999     7.54312    0.01180    17.55491
   Cl  3   -0.55491      9.99999     7.54312    0.01180    17.55491
   Cl  4   -0.55491      9.99999     7.54312    0.01180    17.55491
 ====================================================================
 * Total *  0.00000     39.99992    23.89283    0.10725    64.00000

 Normal termination of Gaussian 16 at Mon Nov 18 16:40:43 2024.
