 Gaussian 16, Revision C.01,
 Gaussian 16:  ES64L-G16RevC.01  3-Jul-2019

 -----------------------------------------------------------------
 #RHF/STO-3G int=nobasistransform Symmetry=None 5D 7F Pop=NBO7Read
 -----------------------------------------------------------------

 ----------
 mol116-NBO
 ----------
 Symbolic Z-matrix:
 Charge =  0 Multiplicity = 1

                          Input orientation:
 ---------------------------------------------------------------------
 Center     Atomic      Atomic             Coordinates (Angstroms)
 Number     Number       Type             X           Y           Z
 ---------------------------------------------------------------------
      1         16           0        0.000002    0.231838   -0.438643
      2          8           0        0.000020    1.500742    0.379819
      3          6           0        1.339528   -0.809022    0.180717
      4          6           0       -1.339548   -0.808992    0.180718
      5          1           0        1.255835   -0.896385    1.266825
      6          1           0       -2.279404   -0.313924   -0.068674
      7          1           0        1.304407   -1.793327   -0.292589
      8          1           0        2.279395   -0.313974   -0.068674
      9          1           0       -1.304447   -1.793298   -0.292587
     10          1           0       -1.255857   -0.896355    1.266826
 ---------------------------------------------------------------------

 SCF Done:  E(RHF) =  -545.156555882     A.U. after   12 cycles

 Alpha  occ. eigenvalues --  -90.96851 -19.98892 -11.05647 -11.05644  -8.84271
 Alpha  occ. eigenvalues --   -6.47531  -6.47419  -6.47102  -1.20609  -0.99933
 Alpha  occ. eigenvalues --   -0.92715  -0.75496  -0.59444  -0.58040  -0.56800
 Alpha  occ. eigenvalues --   -0.54672  -0.48867  -0.45244  -0.35953  -0.22284
 Alpha  occ. eigenvalues --   -0.20187
 Alpha virt. eigenvalues --    0.40344   0.44608   0.59256   0.65857   0.68709
 Alpha virt. eigenvalues --    0.69189   0.70423   0.72560   0.73284

 Mulliken charges:
               1
     1  S    0.655730
     2  O   -0.549152
     3  C   -0.284936
     4  C   -0.284936
     5  H    0.079072
     6  H    0.080915
     7  H    0.071660
     8  H    0.080915
     9  H    0.071661
    10  H    0.079072
 Sum of Mulliken charges =  -0.00000

 Dipole moment (field-independent basis, Debye):
    X=             -0.0000    Y=             -3.5886    Z=             -1.0301  Tot=              3.7335
 Quadrupole moment (field-independent basis, Debye-Ang):
   XX=            -27.5074   YY=            -34.3484   ZZ=            -29.6946
   XY=             -0.0001   XZ=             -0.0000   YZ=             -1.7118

 Summary of Natural Population Analysis:

                                     Natural Population
             Natural    ---------------------------------------------
  Atom No    Charge        Core      Valence    Rydberg      Total
 --------------------------------------------------------------------
    S  1    0.70045      9.99995     5.29960    0.00000    15.29955
    O  2   -0.58463      2.00000     6.58463    0.00000     8.58463
    C  3   -0.23040      2.00000     4.23040    0.00000     6.23040
    C  4   -0.23040      2.00000     4.23040    0.00000     6.23040
    H  5    0.05874      0.00000     0.94126    0.00000     0.94126
    H  6    0.06075      0.00000     0.93925    0.00000     0.93925
    H  7    0.05300      0.00000     0.94700    0.00000     0.94700
    H  8    0.06075      0.00000     0.93925    0.00000     0.93925
    H  9    0.05300      0.00000     0.94700    0.00000     0.94700
    H 10    0.05874      0.00000     0.94126    0.00000     0.94126
 ====================================================================
 * Total *  0.00000     15.99995    26.00005    0.00000    42.00000

 Normal termination of Gaussian 16 at Mon Nov 18 15:41:30 2024.
