 Gaussian 16, Revision C.01,
 Gaussian 16:  ES64L-G16RevC.01  3-Jul-2019

 -----------------------------------------------------------------
 #RHF/6-31G* int=nobasistransform Symmetry=None 5D 7F Pop=NBO7Read
 -----------------------------------------------------------------

 ----------
 mol124-NBO
 ----------
 Symbolic Z-matrix:
 Charge =  0 Multiplicity = 1

                          Input orientation:
 ---------------------------------------------------------------------
 Center     Atomic      Atomic             Coordinates (Angstroms)
 Number     Number       Type             X           Y           Z
 ---------------------------------------------------------------------
      1          6           0        0.000000    0.154560    0.000000
      2          8           0        0.166384    1.360084    0.000000
      3          8           0       -1.236449   -0.415036    0.000000
      4          1           0       -1.867646    0.333582    0.000000
      5          6           0        1.073776   -0.892748    0.000000
      6          1           0        2.048189   -0.408135    0.000000
      7          1           0        0.968661   -1.528353    0.881747
      8          1           0        0.968661   -1.528353   -0.881747
 ---------------------------------------------------------------------

 SCF Done:  E(RHF) =  -227.805530576     A.U. after   13 cycles

 Alpha  occ. eigenvalues --  -20.61585 -20.55688 -11.39448 -11.24336  -1.45822
 Alpha  occ. eigenvalues --   -1.35449  -1.02777  -0.81690  -0.70033  -0.67559
 Alpha  occ. eigenvalues --   -0.64600  -0.58039  -0.57199  -0.55990  -0.47650
 Alpha  occ. eigenvalues --   -0.45106
 Alpha virt. eigenvalues --    0.17864   0.22268   0.25573   0.30514   0.32367
 Alpha virt. eigenvalues --    0.39157   0.47280   0.50873   0.73300   0.76435
 Alpha virt. eigenvalues --    0.80527   0.81890   0.82740   0.92472   1.00356

 Mulliken charges:
               1
     1  C    0.791931
     2  O   -0.581921
     3  O   -0.744169
     4  H    0.477344
     5  C   -0.584255
     6  H    0.216874
     7  H    0.212098
     8  H    0.212098
 Sum of Mulliken charges =  -0.00000

 Dipole moment (field-independent basis, Debye):
    X=             -0.2504    Y=             -1.8260    Z=             -0.0000  Tot=              1.8431
 Quadrupole moment (field-independent basis, Debye-Ang):
   XX=            -19.9600   YY=            -27.7622   ZZ=            -22.9062
   XY=             -4.0644   XZ=              0.0000   YZ=              0.0000

 Summary of Natural Population Analysis:

                                     Natural Population
             Natural    ---------------------------------------------
  Atom No    Charge        Core      Valence    Rydberg      Total
 --------------------------------------------------------------------
    C  1    1.00293      1.99999     2.94707    0.05001     4.99707
    O  2   -0.71000      1.99999     6.68845    0.02156     8.71000
    O  3   -0.80401      1.99999     6.78740    0.01663     8.80401
    H  4    0.51665      0.00000     0.48117    0.00218     0.48335
    C  5   -0.75498      1.99999     4.74185    0.01313     6.75498
    H  6    0.24903      0.00000     0.75012    0.00086     0.75097
    H  7    0.25020      0.00000     0.74897    0.00084     0.74980
    H  8    0.25020      0.00000     0.74897    0.00084     0.74980
 ====================================================================
 * Total *  0.00000      7.99997    23.89400    0.10604    32.00000

 Normal termination of Gaussian 16 at Mon Nov 18 16:41:12 2024.
