 Gaussian 16, Revision C.01,
 Gaussian 16:  ES64L-G16RevC.01  3-Jul-2019

 -----------------------------------------------------------------
 #RHF/6-31G* int=nobasistransform Symmetry=None 5D 7F Pop=NBO7Read
 -----------------------------------------------------------------

 ---------
 mol88-NBO
 ---------
 Symbolic Z-matrix:
 Charge =  0 Multiplicity = 1

                          Input orientation:
 ---------------------------------------------------------------------
 Center     Atomic      Atomic             Coordinates (Angstroms)
 Number     Number       Type             X           Y           Z
 ---------------------------------------------------------------------
      1          6           0        0.000000    0.000000    1.458807
      2          6           0        0.000000    0.000000    0.119588
      3          1           0        0.000000    0.924302    2.028409
      4          1           0        0.000000   -0.924302    2.028409
      5          6           0        0.000000    1.272683   -0.678803
      6          1           0        0.000000    2.153042   -0.031588
      7          1           0        0.880211    1.323542   -1.329592
      8          1           0       -0.880211    1.323542   -1.329592
      9          6           0        0.000000   -1.272683   -0.678803
     10          1           0        0.000000   -2.153042   -0.031588
     11          1           0       -0.880211   -1.323542   -1.329592
     12          1           0        0.880211   -1.323542   -1.329592
 ---------------------------------------------------------------------

 SCF Done:  E(RHF) =  -156.109038266     A.U. after   11 cycles

 Alpha  occ. eigenvalues --  -11.23549 -11.21571 -11.21568 -11.20747  -1.08569
 Alpha  occ. eigenvalues --   -0.93944  -0.92247  -0.71617  -0.61557  -0.60727
 Alpha  occ. eigenvalues --   -0.58838  -0.53598  -0.51905  -0.51200  -0.47728
 Alpha  occ. eigenvalues --   -0.34095
 Alpha virt. eigenvalues --    0.18846   0.23391   0.28349   0.30176   0.30385
 Alpha virt. eigenvalues --    0.32755   0.32890   0.34159   0.38016   0.39738
 Alpha virt. eigenvalues --    0.48023   0.54498   0.71899   0.73745   0.74349

 Mulliken charges:
               1
     1  C   -0.443750
     2  C    0.113584
     3  H    0.170347
     4  H    0.170347
     5  C   -0.523158
     6  H    0.176701
     7  H    0.170597
     8  H    0.170597
     9  C   -0.523158
    10  H    0.176701
    11  H    0.170597
    12  H    0.170597
 Sum of Mulliken charges =  -0.00000

 Dipole moment (field-independent basis, Debye):
    X=             -0.0000    Y=             -0.0000    Z=             -0.4665  Tot=              0.4665
 Quadrupole moment (field-independent basis, Debye-Ang):
   XX=            -28.3076   YY=            -25.8908   ZZ=            -26.1910
   XY=             -0.0000   XZ=              0.0000   YZ=              0.0000

 Summary of Natural Population Analysis:

                                     Natural Population
             Natural    ---------------------------------------------
  Atom No    Charge        Core      Valence    Rydberg      Total
 --------------------------------------------------------------------
    C  1   -0.44271      1.99999     4.42394    0.01878     6.44271
    C  2   -0.00419      1.99999     3.98481    0.01938     6.00419
    H  3    0.20758      0.00000     0.79181    0.00061     0.79242
    H  4    0.20758      0.00000     0.79181    0.00061     0.79242
    C  5   -0.65394      1.99999     4.63999    0.01396     6.65394
    H  6    0.22488      0.00000     0.77422    0.00090     0.77512
    H  7    0.22247      0.00000     0.77623    0.00130     0.77753
    H  8    0.22247      0.00000     0.77623    0.00130     0.77753
    C  9   -0.65394      1.99999     4.63999    0.01396     6.65394
    H 10    0.22488      0.00000     0.77422    0.00090     0.77512
    H 11    0.22247      0.00000     0.77623    0.00130     0.77753
    H 12    0.22247      0.00000     0.77623    0.00130     0.77753
 ====================================================================
 * Total *  0.00000      7.99997    23.92574    0.07429    32.00000

 Normal termination of Gaussian 16 at Mon Nov 18 16:40:43 2024.
