 Gaussian 16, Revision C.01,
 Gaussian 16:  ES64L-G16RevC.01  3-Jul-2019

 ----------------------------------------------------
 #OPT=VeryTight Int=UltraFine RHF/STO-3G Pop=NBO7Read
 ----------------------------------------------------

 ----------
 NBO-CH3CH3
 ----------
 Symbolic Z-matrix:
 Charge =  0 Multiplicity = 1

 SCF Done:  E(RHF) =  -78.3028682424     A.U. after    7 cycles
 SCF Done:  E(RHF) =  -78.3055564326     A.U. after    7 cycles
 SCF Done:  E(RHF) =  -78.3061738044     A.U. after    6 cycles
 SCF Done:  E(RHF) =  -78.3061792504     A.U. after    6 cycles
 SCF Done:  E(RHF) =  -78.3061796446     A.U. after    5 cycles
 SCF Done:  E(RHF) =  -78.3061796448     A.U. after    3 cycles
 Optimization completed.
    -- Stationary point found.

                         Standard orientation:
 ---------------------------------------------------------------------
 Center     Atomic      Atomic             Coordinates (Angstroms)
 Number     Number       Type             X           Y           Z
 ---------------------------------------------------------------------
      1          6           0        0.000000    0.000000   -0.768831
      2          1           0       -0.507861   -0.879641   -1.153280
      3          1           0       -0.507861    0.879641   -1.153280
      4          1           0        1.015722    0.000000   -1.153280
      5          6           0       -0.000000    0.000000    0.768831
      6          1           0        0.507861   -0.879641    1.153280
      7          1           0        0.507861    0.879641    1.153280
      8          1           0       -1.015722    0.000000    1.153280
 ---------------------------------------------------------------------

 Unable to determine electronic state:  an orbital has unidentified symmetry.
 Alpha  occ. eigenvalues --  -11.03549 -11.03518  -0.98105  -0.81208  -0.57202
 Alpha  occ. eigenvalues --   -0.57202  -0.47166  -0.46033  -0.46033
 Alpha virt. eigenvalues --    0.65554   0.65554   0.68706   0.73693   0.78133
 Alpha virt. eigenvalues --    0.78924   0.78924

 Mulliken charges:
               1
     1  C   -0.174739
     2  H    0.058246
     3  H    0.058246
     4  H    0.058246
     5  C   -0.174739
     6  H    0.058246
     7  H    0.058246
     8  H    0.058246
 Sum of Mulliken charges =  -0.00000

 Dipole moment (field-independent basis, Debye):
    X=             -0.0000    Y=              0.0000    Z=              0.0000  Tot=              0.0000
 Quadrupole moment (field-independent basis, Debye-Ang):
   XX=            -14.0346   YY=            -14.0346   ZZ=            -14.4303
   XY=              0.0000   XZ=             -0.0000   YZ=             -0.0000

 Summary of Natural Population Analysis:

                                     Natural Population
             Natural    ---------------------------------------------
  Atom No    Charge        Core      Valence    Rydberg      Total
 --------------------------------------------------------------------
    C  1   -0.12479      2.00000     4.12479    0.00000     6.12479
    H  2    0.04160      0.00000     0.95840    0.00000     0.95840
    H  3    0.04160      0.00000     0.95840    0.00000     0.95840
    H  4    0.04160      0.00000     0.95840    0.00000     0.95840
    C  5   -0.12479      2.00000     4.12479    0.00000     6.12479
    H  6    0.04160      0.00000     0.95840    0.00000     0.95840
    H  7    0.04160      0.00000     0.95840    0.00000     0.95840
    H  8    0.04160      0.00000     0.95840    0.00000     0.95840
 ====================================================================
 * Total *  0.00000      4.00000    14.00000    0.00000    18.00000

 Normal termination of Gaussian 16 at Wed Jul 24 11:04:46 2024.
