 Gaussian 16, Revision C.01,
 Gaussian 16:  ES64L-G16RevC.01  3-Jul-2019

 -----------------------------------------------------------------
 #RHF/STO-3G int=nobasistransform Symmetry=None 5D 7F Pop=NBO7Read
 -----------------------------------------------------------------

 ---------
 mol61-NBO
 ---------
 Symbolic Z-matrix:
 Charge =  0 Multiplicity = 1

                          Input orientation:
 ---------------------------------------------------------------------
 Center     Atomic      Atomic             Coordinates (Angstroms)
 Number     Number       Type             X           Y           Z
 ---------------------------------------------------------------------
      1          8           0        0.000000    0.000000   -1.699243
      2          6           0        0.000000    0.000000   -0.520492
      3         16           0        0.000000    0.000000    1.044806
 ---------------------------------------------------------------------

 SCF Done:  E(RHF) =  -504.403571841     A.U. after   10 cycles

 Alpha  occ. eigenvalues --  -90.72890 -20.37631 -11.17525  -8.63887  -6.27130
 Alpha  occ. eigenvalues --   -6.26654  -6.26654  -1.40444  -0.98310  -0.64551
 Alpha  occ. eigenvalues --   -0.55640  -0.55640  -0.49622  -0.27748  -0.27748
 Alpha virt. eigenvalues --    0.27531   0.27531   0.49077   1.07841

 Mulliken charges:
               1
     1  O   -0.193524
     2  C    0.114291
     3  S    0.079233
 Sum of Mulliken charges =   0.00000

 Dipole moment (field-independent basis, Debye):
    X=              0.0000    Y=             -0.0000    Z=              0.1903  Tot=              0.1903
 Quadrupole moment (field-independent basis, Debye-Ang):
   XX=            -19.7855   YY=            -19.7855   ZZ=            -23.8355
   XY=              0.0000   XZ=              0.0000   YZ=              0.0000

 Summary of Natural Population Analysis:

                                     Natural Population
             Natural    ---------------------------------------------
  Atom No    Charge        Core      Valence    Rydberg      Total
 --------------------------------------------------------------------
    O  1   -0.22726      2.00000     6.22726    0.00000     8.22726
    C  2    0.27832      2.00000     3.72168    0.00000     5.72168
    S  3   -0.05106      9.99993     6.05113    0.00000    16.05106
 ====================================================================
 * Total *  0.00000     13.99992    16.00008    0.00000    30.00000

 Normal termination of Gaussian 16 at Mon Nov 18 15:41:20 2024.
