 Gaussian 16, Revision C.01,
 Gaussian 16:  ES64L-G16RevC.01  3-Jul-2019

 ----------------------------
 #RHF/STO-3G NMR Pop=NBO7Read
 ----------------------------

 ---------
 NBO-LiCH3
 ---------
 Symbolic Z-matrix:
 Charge =  0 Multiplicity = 1

                         Standard orientation:
 ---------------------------------------------------------------------
 Center     Atomic      Atomic             Coordinates (Angstroms)
 Number     Number       Type             X           Y           Z
 ---------------------------------------------------------------------
      1          6           0        0.000000   -0.000000    0.398109
      2          3           0       -0.000000    0.000000   -1.610325
      3          1           0       -0.000000    0.999596    0.814106
      4          1           0        0.865676   -0.499798    0.814106
      5          1           0       -0.865676   -0.499798    0.814106
 ---------------------------------------------------------------------

 SCF Done:  E(RHF) =  -46.4215878959     A.U. after   10 cycles

      1  C    Isotropic =   266.3852   Anisotropy =    20.3086

      2  Li   Isotropic =    85.7313   Anisotropy =    27.9019

      3  H    Isotropic =    33.6913   Anisotropy =    13.9577

      4  H    Isotropic =    33.6913   Anisotropy =    13.9577

      5  H    Isotropic =    33.6913   Anisotropy =    13.9577

 The electronic state is 1-A1.
 Alpha  occ. eigenvalues --  -10.91966  -2.33275  -0.80005  -0.43296  -0.43296
 Alpha  occ. eigenvalues --   -0.23959
 Alpha virt. eigenvalues --    0.08536   0.18415   0.18415   0.44867   0.80043
 Alpha virt. eigenvalues --    0.80043   0.88284

 Mulliken charges:
               1
     1  C   -0.241659
     2  Li   0.157988
     3  H    0.027890
     4  H    0.027890
     5  H    0.027890
 Sum of Mulliken charges =  -0.00000

 Dipole moment (field-independent basis, Debye):
    X=              0.0000    Y=             -0.0000    Z=             -4.2658  Tot=              4.2658
 Quadrupole moment (field-independent basis, Debye-Ang):
   XX=            -11.2404   YY=            -11.2404   ZZ=              0.0684
   XY=             -0.0000   XZ=              0.0000   YZ=              0.0000

 Summary of Natural Population Analysis:

                                     Natural Population
             Natural    ---------------------------------------------
  Atom No    Charge        Core      Valence    Rydberg      Total
 --------------------------------------------------------------------
    C  1   -0.51097      1.99999     4.51098    0.00000     6.51097
   Li  2    0.46537      1.99995     0.40299    0.13169     2.53463
    H  3    0.01520      0.00000     0.98480    0.00000     0.98480
    H  4    0.01520      0.00000     0.98480    0.00000     0.98480
    H  5    0.01520      0.00000     0.98480    0.00000     0.98480
 ====================================================================
 * Total *  0.00000      3.99994     7.86837    0.13169    12.00000

 Normal termination of Gaussian 16 at Fri Aug  2 15:56:40 2024.
