 Gaussian 16, Revision C.01,
 Gaussian 16:  ES64L-G16RevC.01  3-Jul-2019

 ----------------------------------------------------
 #OPT=VeryTight Int=UltraFine RHF/STO-3G Pop=NBO7Read
 ----------------------------------------------------

 --------
 NBO-LiLi
 --------
 Symbolic Z-matrix:
 Charge =  0 Multiplicity = 1

 SCF Done:  E(RHF) =  -14.6387473092     A.U. after    7 cycles
 SCF Done:  E(RHF) =  -14.6387473161     A.U. after    5 cycles
 SCF Done:  E(RHF) =  -14.6387473163     A.U. after    4 cycles
 Optimization completed.
    -- Stationary point found.

                         Standard orientation:
 ---------------------------------------------------------------------
 Center     Atomic      Atomic             Coordinates (Angstroms)
 Number     Number       Type             X           Y           Z
 ---------------------------------------------------------------------
      1          3           0        0.000000    0.000000    1.348212
      2          3           0        0.000000    0.000000   -1.348212
 ---------------------------------------------------------------------

 The electronic state is 1-SGG.
 Alpha  occ. eigenvalues --   -2.33043  -2.33038  -0.14889
 Alpha virt. eigenvalues --    0.08229   0.13427   0.13427   0.15711   0.23935
 Alpha virt. eigenvalues --    0.23935   0.46360

 Mulliken charges:
               1
     1  Li  -0.000000
     2  Li  -0.000000
 Sum of Mulliken charges =  -0.00000

 Dipole moment (field-independent basis, Debye):
    X=              0.0000    Y=             -0.0000    Z=              0.0000  Tot=              0.0000
 Quadrupole moment (field-independent basis, Debye-Ang):
   XX=            -11.7044   YY=            -11.7044   ZZ=              0.3288
   XY=             -0.0000   XZ=             -0.0000   YZ=              0.0000

 Summary of Natural Population Analysis:

                                     Natural Population
             Natural    ---------------------------------------------
  Atom No    Charge        Core      Valence    Rydberg      Total
 --------------------------------------------------------------------
   Li  1    0.00000      1.99996     0.97533    0.02471     3.00000
   Li  2    0.00000      1.99996     0.97533    0.02471     3.00000
 ====================================================================
 * Total *  0.00000      3.99991     1.95066    0.04943     6.00000

 Normal termination of Gaussian 16 at Wed Jul 24 10:54:14 2024.
