 Gaussian 16, Revision C.01,
 Gaussian 16:  ES64L-G16RevC.01  3-Jul-2019

 -----------------------------------------------------------------
 #RHF/STO-3G int=nobasistransform Symmetry=None 5D 7F Pop=NBO7Read
 -----------------------------------------------------------------

 ---------
 mol52-NBO
 ---------
 Symbolic Z-matrix:
 Charge =  0 Multiplicity = 1

                          Input orientation:
 ---------------------------------------------------------------------
 Center     Atomic      Atomic             Coordinates (Angstroms)
 Number     Number       Type             X           Y           Z
 ---------------------------------------------------------------------
      1          6           0       -0.047953    1.149519    0.000000
      2         16           0       -0.047953   -0.664856    0.000000
      3          1           0        1.283076   -0.823249    0.000000
      4          1           0       -1.092601    1.461428    0.000000
      5          1           0        0.432249    1.551207    0.892259
      6          1           0        0.432249    1.551207   -0.892259
 ---------------------------------------------------------------------

 SCF Done:  E(RHF) =  -432.895528000     A.U. after    9 cycles

 Alpha  occ. eigenvalues --  -90.74100 -11.04234  -8.64287  -6.27534  -6.27299
 Alpha  occ. eigenvalues --   -6.26996  -0.97111  -0.79917  -0.55228  -0.54471
 Alpha  occ. eigenvalues --   -0.45573  -0.36446  -0.25951
 Alpha virt. eigenvalues --    0.45817   0.51425   0.70157   0.70719   0.73298

 Mulliken charges:
               1
     1  C   -0.264559
     2  S    0.111865
     3  H   -0.043555
     4  H    0.068921
     5  H    0.063664
     6  H    0.063664
 Sum of Mulliken charges =   0.00000

 Dipole moment (field-independent basis, Debye):
    X=              0.6646    Y=              0.7171    Z=             -0.0000  Tot=              0.9777
 Quadrupole moment (field-independent basis, Debye-Ang):
   XX=            -17.8866   YY=            -18.8467   ZZ=            -19.2614
   XY=             -0.8369   XZ=             -0.0000   YZ=             -0.0000

 Summary of Natural Population Analysis:

                                     Natural Population
             Natural    ---------------------------------------------
  Atom No    Charge        Core      Valence    Rydberg      Total
 --------------------------------------------------------------------
    C  1   -0.18775      2.00000     4.18775    0.00000     6.18775
    S  2    0.08126      9.99999     5.91875    0.00000    15.91874
    H  3   -0.02928      0.00000     1.02928    0.00000     1.02928
    H  4    0.04919      0.00000     0.95081    0.00000     0.95081
    H  5    0.04329      0.00000     0.95671    0.00000     0.95671
    H  6    0.04329      0.00000     0.95671    0.00000     0.95671
 ====================================================================
 * Total *  0.00000     11.99998    14.00002    0.00000    26.00000

 Normal termination of Gaussian 16 at Mon Nov 18 15:41:20 2024.
