 Gaussian 16, Revision C.01,
 Gaussian 16:  ES64L-G16RevC.01  3-Jul-2019

 -----------------------------------------------------------------
 #RHF/STO-3G int=nobasistransform Symmetry=None 5D 7F Pop=NBO7Read
 -----------------------------------------------------------------

 ---------
 mol63-NBO
 ---------
 Symbolic Z-matrix:
 Charge =  0 Multiplicity = 1

                          Input orientation:
 ---------------------------------------------------------------------
 Center     Atomic      Atomic             Coordinates (Angstroms)
 Number     Number       Type             X           Y           Z
 ---------------------------------------------------------------------
      1          8           0        0.000000    0.000000    1.330715
      2          6           0        0.000000    0.000000    0.144358
      3          9           0        0.000000    1.069490   -0.639548
      4          9           0        0.000000   -1.069490   -0.639548
 ---------------------------------------------------------------------

 SCF Done:  E(RHF) =  -307.305324680     A.U. after   11 cycles

 Alpha  occ. eigenvalues --  -26.02264 -26.02251 -20.32442 -11.30138  -1.62696
 Alpha  occ. eigenvalues --   -1.54596  -1.38104  -0.79274  -0.70009  -0.67315
 Alpha  occ. eigenvalues --   -0.64737  -0.53293  -0.51161  -0.51105  -0.41909
 Alpha  occ. eigenvalues --   -0.41411
 Alpha virt. eigenvalues --    0.28287   0.54373   0.65311   0.97236

 Mulliken charges:
               1
     1  O   -0.246031
     2  C    0.501840
     3  F   -0.127905
     4  F   -0.127905
 Sum of Mulliken charges =  -0.00000

 Dipole moment (field-independent basis, Debye):
    X=             -0.0000    Y=             -0.0000    Z=             -0.8653  Tot=              0.8653
 Quadrupole moment (field-independent basis, Debye-Ang):
   XX=            -16.2709   YY=            -18.7586   ZZ=            -20.7332
   XY=             -0.0000   XZ=             -0.0000   YZ=             -0.0000

 Summary of Natural Population Analysis:

                                     Natural Population
             Natural    ---------------------------------------------
  Atom No    Charge        Core      Valence    Rydberg      Total
 --------------------------------------------------------------------
    O  1   -0.29867      2.00000     6.29868    0.00000     8.29867
    C  2    0.61724      2.00000     3.38276    0.00000     5.38276
    F  3   -0.15928      2.00000     7.15928    0.00000     9.15928
    F  4   -0.15928      2.00000     7.15928    0.00000     9.15928
 ====================================================================
 * Total *  0.00000      8.00000    24.00000    0.00000    32.00000

 Normal termination of Gaussian 16 at Mon Nov 18 15:41:19 2024.
