 Gaussian 16, Revision C.01,
 Gaussian 16:  ES64L-G16RevC.01  3-Jul-2019

 -----------------------------------------------------------------
 #RHF/STO-3G int=nobasistransform Symmetry=None 5D 7F Pop=NBO7Read
 -----------------------------------------------------------------

 ----------
 mol100-NBO
 ----------
 Symbolic Z-matrix:
 Charge =  0 Multiplicity = 1

                          Input orientation:
 ---------------------------------------------------------------------
 Center     Atomic      Atomic             Coordinates (Angstroms)
 Number     Number       Type             X           Y           Z
 ---------------------------------------------------------------------
      1          6           0       -1.316208    0.309247    0.000000
      2          8           0        0.000000    0.896852    0.000000
      3          1           0       -1.985538    1.166013    0.000000
      4          1           0       -1.464336   -0.304637    0.890672
      5          1           0       -1.464336   -0.304637   -0.890672
      6          7           0        1.045334   -0.022815    0.000000
      7          8           0        0.686764   -1.178416    0.000000
 ---------------------------------------------------------------------

 SCF Done:  E(RHF) =  -240.496645358     A.U. after   13 cycles

 Alpha  occ. eigenvalues --  -20.37008 -20.34898 -15.53706 -11.12011  -1.50927
 Alpha  occ. eigenvalues --   -1.31861  -0.95877  -0.80709  -0.66614  -0.63066
 Alpha  occ. eigenvalues --   -0.61316  -0.54188  -0.52847  -0.44454  -0.38156
 Alpha  occ. eigenvalues --   -0.35043
 Alpha virt. eigenvalues --    0.22189   0.48926   0.58285   0.67407   0.68818
 Alpha virt. eigenvalues --    0.70999   0.82899

 Mulliken charges:
               1
     1  C   -0.075744
     2  O   -0.172364
     3  H    0.091773
     4  H    0.080018
     5  H    0.080018
     6  N    0.119725
     7  O   -0.123426
 Sum of Mulliken charges =  -0.00000

 Dipole moment (field-independent basis, Debye):
    X=             -1.8734    Y=             -0.2081    Z=             -0.0000  Tot=              1.8850
 Quadrupole moment (field-independent basis, Debye-Ang):
   XX=            -20.9680   YY=            -23.5875   ZZ=            -19.8139
   XY=             -0.5194   XZ=             -0.0000   YZ=             -0.0000

 Summary of Natural Population Analysis:

                                     Natural Population
             Natural    ---------------------------------------------
  Atom No    Charge        Core      Valence    Rydberg      Total
 --------------------------------------------------------------------
    C  1    0.00471      1.99999     3.99530    0.00000     5.99529
    O  2   -0.18835      2.00000     6.18835    0.00000     8.18835
    H  3    0.06165      0.00000     0.93835    0.00000     0.93835
    H  4    0.04985      0.00000     0.95015    0.00000     0.95015
    H  5    0.04985      0.00000     0.95015    0.00000     0.95015
    N  6    0.18011      2.00000     4.81989    0.00000     6.81989
    O  7   -0.15783      2.00000     6.15783    0.00000     8.15783
 ====================================================================
 * Total *  0.00000      7.99999    24.00001    0.00000    32.00000

 Normal termination of Gaussian 16 at Mon Nov 18 15:41:26 2024.
