 Gaussian 16, Revision C.01,
 Gaussian 16:  ES64L-G16RevC.01  3-Jul-2019

 -----------------------------------------------------------------
 #RHF/STO-3G int=nobasistransform Symmetry=None 5D 7F Pop=NBO7Read
 -----------------------------------------------------------------

 ---------
 mol21-NBO
 ---------
 Symbolic Z-matrix:
 Charge =  0 Multiplicity = 1

                          Input orientation:
 ---------------------------------------------------------------------
 Center     Atomic      Atomic             Coordinates (Angstroms)
 Number     Number       Type             X           Y           Z
 ---------------------------------------------------------------------
      1          3           0        0.000000    0.000000    1.386530
      2          3           0        0.000000    0.000000   -1.386530
 ---------------------------------------------------------------------

 SCF Done:  E(RHF) =  -14.6385240654     A.U. after    7 cycles

 Alpha  occ. eigenvalues --   -2.33160  -2.33147  -0.14710
 Alpha virt. eigenvalues --    0.08064   0.13599   0.13599   0.15537   0.23570
 Alpha virt. eigenvalues --    0.23570   0.44787

 Mulliken charges:
               1
     1  Li  -0.000000
     2  Li   0.000000
 Sum of Mulliken charges =  -0.00000

 Dipole moment (field-independent basis, Debye):
    X=              0.0000    Y=             -0.0000    Z=             -0.0000  Tot=              0.0000
 Quadrupole moment (field-independent basis, Debye-Ang):
   XX=            -11.7051   YY=            -11.7051   ZZ=              0.7538
   XY=              0.0000   XZ=              0.0000   YZ=             -0.0000

 Summary of Natural Population Analysis:

                                     Natural Population
             Natural    ---------------------------------------------
  Atom No    Charge        Core      Valence    Rydberg      Total
 --------------------------------------------------------------------
   Li  1    0.00000      1.99996     0.97470    0.02534     3.00000
   Li  2    0.00000      1.99996     0.97470    0.02534     3.00000
 ====================================================================
 * Total *  0.00000      3.99992     1.94941    0.05067     6.00000

 Normal termination of Gaussian 16 at Mon Nov 18 15:41:32 2024.
