 Gaussian 16, Revision C.01,
 Gaussian 16:  ES64L-G16RevC.01  3-Jul-2019

 -----------------------
 #RHF/4-31G Pop=NBO7Read
 -----------------------

 -----
 NBO-a
 -----
 Symbolic Z-matrix:
 Charge =  0 Multiplicity = 1

                         Standard orientation:
 ---------------------------------------------------------------------
 Center     Atomic      Atomic             Coordinates (Angstroms)
 Number     Number       Type             X           Y           Z
 ---------------------------------------------------------------------
      1          6           0       -0.000000    0.000000   -0.627546
      2          1           0       -0.000000    1.026393   -1.013434
      3          1           0       -0.888882   -0.513197   -1.013434
      4          1           0        0.888882   -0.513197   -1.013434
      5          9           0        0.000000   -0.000000    0.756176
 ---------------------------------------------------------------------

 SCF Done:  E(RHF) =  -138.856865007     A.U. after   10 cycles

 The electronic state is 1-A1.
 Alpha  occ. eigenvalues --  -26.21848 -11.29253  -1.57621  -0.95699  -0.68661
 Alpha  occ. eigenvalues --   -0.68661  -0.65679  -0.52420  -0.52420
 Alpha virt. eigenvalues --    0.24292   0.30686   0.30686   0.31416   0.84295
 Alpha virt. eigenvalues --    0.84295   0.84609   1.15866   1.15866   1.16316
 Alpha virt. eigenvalues --    1.38562   1.70311   1.70311   1.73477   2.51177

 Mulliken charges:
               1
     1  C   -0.028744
     2  H    0.160441
     3  H    0.160441
     4  H    0.160441
     5  F   -0.452581
 Sum of Mulliken charges =   0.00000

 Dipole moment (field-independent basis, Debye):
    X=             -0.0000    Y=             -0.0000    Z=             -2.5023  Tot=              2.5023
 Quadrupole moment (field-independent basis, Debye-Ang):
   XX=            -11.7576   YY=            -11.7576   ZZ=            -12.4284
   XY=              0.0000   XZ=              0.0000   YZ=              0.0000

 Summary of Natural Population Analysis:

                                     Natural Population
             Natural    ---------------------------------------------
  Atom No    Charge        Core      Valence    Rydberg      Total
 --------------------------------------------------------------------
    C  1   -0.19342      1.99994     4.18715    0.00633     6.19342
    H  2    0.20167      0.00000     0.79708    0.00125     0.79833
    H  3    0.20167      0.00000     0.79708    0.00125     0.79833
    H  4    0.20167      0.00000     0.79708    0.00125     0.79833
    F  5   -0.41159      1.99997     7.40861    0.00301     9.41159
 ====================================================================
 * Total *  0.00000      3.99991    13.98700    0.01309    18.00000

 Normal termination of Gaussian 16 at Wed Jul 24 13:56:57 2024.
