 Gaussian 16, Revision C.01,
 Gaussian 16:  ES64L-G16RevC.01  3-Jul-2019

 -----------------------------------------------------------------
 #RHF/6-31G* int=nobasistransform Symmetry=None 5D 7F Pop=NBO7Read
 -----------------------------------------------------------------

 ---------
 mol00-NBO
 ---------
 Symbolic Z-matrix:
 Charge =  0 Multiplicity = 1

                          Input orientation:
 ---------------------------------------------------------------------
 Center     Atomic      Atomic             Coordinates (Angstroms)
 Number     Number       Type             X           Y           Z
 ---------------------------------------------------------------------
      1          3           0        0.000000    0.000000    0.410000
      2          1           0        0.000000    0.000000   -1.230000
 ---------------------------------------------------------------------

 SCF Done:  E(RHF) =  -7.98079882870     A.U. after    9 cycles

 Alpha  occ. eigenvalues --   -2.45384  -0.29764
 Alpha virt. eigenvalues --    0.00841   0.05957   0.05957   0.14551   0.20012
 Alpha virt. eigenvalues --    0.22053   0.22053   0.34311   0.57220   0.57220
 Alpha virt. eigenvalues --    0.57827   0.57827   0.76285   1.33508

 Mulliken charges:
               1
     1  Li   0.177677
     2  H   -0.177677
 Sum of Mulliken charges =  -0.00000

 Dipole moment (field-independent basis, Debye):
    X=              0.0000    Y=             -0.0000    Z=              5.9898  Tot=              5.9898
 Quadrupole moment (field-independent basis, Debye-Ang):
   XX=             -5.4848   YY=             -5.4848   ZZ=             -6.9866
   XY=             -0.0000   XZ=             -0.0000   YZ=              0.0000

 Summary of Natural Population Analysis:

                                     Natural Population
             Natural    ---------------------------------------------
  Atom No    Charge        Core      Valence    Rydberg      Total
 --------------------------------------------------------------------
   Li  1    0.72468      1.99995     0.24106    0.03431     2.27532
    H  2   -0.72468      0.00000     1.72467    0.00001     1.72468
 ====================================================================
 * Total *  0.00000      1.99995     1.96573    0.03432     4.00000

 Normal termination of Gaussian 16 at Mon Nov 18 16:40:05 2024.
