 Gaussian 16, Revision C.01,
 Gaussian 16:  ES64L-G16RevC.01  3-Jul-2019

 -----------------------------------------------------------------
 #RHF/STO-3G int=nobasistransform Symmetry=None 5D 7F Pop=NBO7Read
 -----------------------------------------------------------------

 ----------
 mol101-NBO
 ----------
 Symbolic Z-matrix:
 Charge =  0 Multiplicity = 1

                          Input orientation:
 ---------------------------------------------------------------------
 Center     Atomic      Atomic             Coordinates (Angstroms)
 Number     Number       Type             X           Y           Z
 ---------------------------------------------------------------------
      1          6           0        0.000000    0.000000   -1.244466
      2         14           0        0.000000    0.000000    0.635703
      3          1           0        0.000000   -1.019762   -1.636363
      4          1           0       -0.883140    0.509881   -1.636363
      5          1           0        0.883140    0.509881   -1.636363
      6          1           0        0.000000    1.391234    1.158682
      7          1           0       -1.204844   -0.695617    1.158682
      8          1           0        1.204844   -0.695617    1.158682
 ---------------------------------------------------------------------

 SCF Done:  E(RHF) =  -326.505107626     A.U. after    8 cycles

 Alpha  occ. eigenvalues --  -67.97643 -10.99247  -5.95716  -3.98252  -3.98252
 Alpha  occ. eigenvalues --   -3.98241  -0.89711  -0.66062  -0.51981  -0.51981
 Alpha  occ. eigenvalues --   -0.40748  -0.40748  -0.39324
 Alpha virt. eigenvalues --    0.51462   0.54035   0.54035   0.55872   0.73756
 Alpha virt. eigenvalues --    0.73756   0.75867

 Mulliken charges:
               1
     1  C   -0.360338
     2  Si   0.694278
     3  H    0.051702
     4  H    0.051702
     5  H    0.051702
     6  H   -0.163015
     7  H   -0.163015
     8  H   -0.163015
 Sum of Mulliken charges =   0.00000

 Dipole moment (field-independent basis, Debye):
    X=              0.0000    Y=             -0.0000    Z=             -0.1564  Tot=              0.1564
 Quadrupole moment (field-independent basis, Debye-Ang):
   XX=            -21.0415   YY=            -21.0415   ZZ=            -21.6336
   XY=             -0.0000   XZ=             -0.0000   YZ=              0.0000

 Summary of Natural Population Analysis:

                                     Natural Population
             Natural    ---------------------------------------------
  Atom No    Charge        Core      Valence    Rydberg      Total
 --------------------------------------------------------------------
    C  1   -0.33535      2.00000     4.33535    0.00000     6.33535
   Si  2    0.77997      9.99998     3.22005    0.00000    13.22003
    H  3    0.04208      0.00000     0.95792    0.00000     0.95792
    H  4    0.04208      0.00000     0.95792    0.00000     0.95792
    H  5    0.04208      0.00000     0.95792    0.00000     0.95792
    H  6   -0.19029      0.00000     1.19029    0.00000     1.19029
    H  7   -0.19029      0.00000     1.19029    0.00000     1.19029
    H  8   -0.19029      0.00000     1.19029    0.00000     1.19029
 ====================================================================
 * Total *  0.00000     11.99998    14.00002    0.00000    26.00000

 Normal termination of Gaussian 16 at Mon Nov 18 15:41:26 2024.
