 Gaussian 16, Revision C.01,
 Gaussian 16:  ES64L-G16RevC.01  3-Jul-2019

 -----------------------------------------------------------------
 #RHF/STO-3G int=nobasistransform Symmetry=None 5D 7F Pop=NBO7Read
 -----------------------------------------------------------------

 ----------
 mol102-NBO
 ----------
 Symbolic Z-matrix:
 Charge =  0 Multiplicity = 1

                          Input orientation:
 ---------------------------------------------------------------------
 Center     Atomic      Atomic             Coordinates (Angstroms)
 Number     Number       Type             X           Y           Z
 ---------------------------------------------------------------------
      1          8           0       -1.040945   -0.436432    0.000000
      2          6           0        0.000000    0.423949    0.000000
      3          8           0        1.169372    0.103741    0.000000
      4          1           0       -0.649570   -1.335134    0.000000
      5          1           0       -0.377847    1.452967    0.000000
 ---------------------------------------------------------------------

 SCF Done:  E(RHF) =  -186.216438432     A.U. after   12 cycles

 Alpha  occ. eigenvalues --  -20.32323 -20.27421 -11.18241  -1.39347  -1.29070
 Alpha  occ. eigenvalues --   -0.80917  -0.63335  -0.59799  -0.54459  -0.47383
 Alpha  occ. eigenvalues --   -0.36288  -0.36093
 Alpha virt. eigenvalues --    0.30207   0.56468   0.66765   0.71789   0.96214

 Mulliken charges:
               1
     1  O   -0.292545
     2  C    0.262580
     3  O   -0.258132
     4  H    0.216836
     5  H    0.071262
 Sum of Mulliken charges =   0.00000

 Dipole moment (field-independent basis, Debye):
    X=             -0.7221    Y=             -0.3259    Z=              0.0000  Tot=              0.7922
 Quadrupole moment (field-independent basis, Debye-Ang):
   XX=            -19.8517   YY=            -12.3431   ZZ=            -14.7902
   XY=             -0.2110   XZ=             -0.0000   YZ=             -0.0000

 Summary of Natural Population Analysis:

                                     Natural Population
             Natural    ---------------------------------------------
  Atom No    Charge        Core      Valence    Rydberg      Total
 --------------------------------------------------------------------
    O  1   -0.32590      2.00000     6.32590    0.00000     8.32590
    C  2    0.36364      1.99999     3.63637    0.00000     5.63636
    O  3   -0.28751      2.00000     6.28751    0.00000     8.28751
    H  4    0.23330      0.00000     0.76670    0.00000     0.76670
    H  5    0.01648      0.00000     0.98352    0.00000     0.98352
 ====================================================================
 * Total *  0.00000      5.99999    18.00001    0.00000    24.00000

 Normal termination of Gaussian 16 at Mon Nov 18 15:41:29 2024.
