 Gaussian 16, Revision C.01,
 Gaussian 16:  ES64L-G16RevC.01  3-Jul-2019

 -----------------------------------------------------------------
 #RHF/6-31G* int=nobasistransform Symmetry=None 5D 7F Pop=NBO7Read
 -----------------------------------------------------------------

 ---------
 mol99-NBO
 ---------
 Symbolic Z-matrix:
 Charge =  0 Multiplicity = 1

                          Input orientation:
 ---------------------------------------------------------------------
 Center     Atomic      Atomic             Coordinates (Angstroms)
 Number     Number       Type             X           Y           Z
 ---------------------------------------------------------------------
      1          6           0       -0.114282   -1.314565    0.000000
      2          7           0        0.000000    0.166480    0.000000
      3          1           0        0.899565   -1.715256    0.000000
      4          1           0       -0.640921   -1.607212    0.904956
      5          1           0       -0.640921   -1.607212   -0.904956
      6          8           0        0.066748    0.728232   -1.103775
      7          8           0        0.066748    0.728232    1.103775
 ---------------------------------------------------------------------

 SCF Done:  E(RHF) =  -243.651888289     A.U. after   14 cycles

 Alpha  occ. eigenvalues --  -20.61301 -20.61294 -15.85633 -11.31001  -1.59116
 Alpha  occ. eigenvalues --   -1.39080  -1.10496  -0.86966  -0.74787  -0.72837
 Alpha  occ. eigenvalues --   -0.72822  -0.62604  -0.60017  -0.49227  -0.49147
 Alpha  occ. eigenvalues --   -0.44837
 Alpha virt. eigenvalues --    0.08796   0.22596   0.27264   0.28050   0.29039
 Alpha virt. eigenvalues --    0.47340   0.55864   0.70290   0.71760   0.72367
 Alpha virt. eigenvalues --    0.90708   0.90933   0.94133   1.08318   1.08698

 Mulliken charges:
               1
     1  C   -0.341605
     2  N    0.581242
     3  H    0.241467
     4  H    0.237871
     5  H    0.237871
     6  O   -0.478423
     7  O   -0.478423
 Sum of Mulliken charges =  -0.00000

 Dipole moment (field-independent basis, Debye):
    X=             -0.3477    Y=             -4.1900    Z=             -0.0000  Tot=              4.2044
 Quadrupole moment (field-independent basis, Debye-Ang):
   XX=            -21.6211   YY=            -21.7849   ZZ=            -26.9298
   XY=             -0.1151   XZ=             -0.0000   YZ=             -0.0000

 Summary of Natural Population Analysis:

                                     Natural Population
             Natural    ---------------------------------------------
  Atom No    Charge        Core      Valence    Rydberg      Total
 --------------------------------------------------------------------
    C  1   -0.46199      1.99999     4.44312    0.01887     6.46199
    N  2    0.63392      1.99999     4.30566    0.06043     6.36608
    H  3    0.25363      0.00000     0.74577    0.00060     0.74637
    H  4    0.24941      0.00000     0.74957    0.00102     0.75059
    H  5    0.24941      0.00000     0.74957    0.00102     0.75059
    O  6   -0.46219      1.99999     6.43964    0.02256     8.46219
    O  7   -0.46219      1.99999     6.43964    0.02256     8.46219
 ====================================================================
 * Total *  0.00000      7.99997    23.87296    0.12706    32.00000

 Normal termination of Gaussian 16 at Mon Nov 18 16:40:47 2024.
