 Gaussian 16, Revision C.01,
 Gaussian 16:  ES64L-G16RevC.01  3-Jul-2019

 -----------------------------------------------------------------
 #RHF/STO-3G int=nobasistransform Symmetry=None 5D 7F Pop=NBO7Read
 -----------------------------------------------------------------

 ---------
 mol72-NBO
 ---------
 Symbolic Z-matrix:
 Charge =  0 Multiplicity = 1

                          Input orientation:
 ---------------------------------------------------------------------
 Center     Atomic      Atomic             Coordinates (Angstroms)
 Number     Number       Type             X           Y           Z
 ---------------------------------------------------------------------
      1         17           0        0.000000    0.000000    0.376796
      2          9           0        0.000000    0.000000   -1.258346
      3          9           0        0.000000    1.714544    0.273310
      4          9           0        0.000000   -1.714544    0.273310
 ---------------------------------------------------------------------

 SCF Done:  E(RHF) =  -748.212599760     A.U. after   11 cycles

 Alpha  occ. eigenvalues -- -104.02643 -26.04815 -25.83278 -25.83262 -10.67743
 Alpha  occ. eigenvalues --   -8.12015  -8.11862  -8.11413  -1.60232  -1.43690
 Alpha  occ. eigenvalues --   -1.43192  -1.05505  -0.66735  -0.66392  -0.66299
 Alpha  occ. eigenvalues --   -0.55147  -0.53317  -0.44398  -0.43242  -0.42244
 Alpha  occ. eigenvalues --   -0.38878  -0.23988
 Alpha virt. eigenvalues --    0.21318   0.30531

 Mulliken charges:
               1
     1  Cl   0.534094
     2  F   -0.066459
     3  F   -0.233817
     4  F   -0.233817
 Sum of Mulliken charges =   0.00000

 Dipole moment (field-independent basis, Debye):
    X=             -0.0000    Y=             -0.0000    Z=             -0.3170  Tot=              0.3170
 Quadrupole moment (field-independent basis, Debye-Ang):
   XX=            -23.0644   YY=            -28.6858   ZZ=            -23.3480
   XY=             -0.0000   XZ=              0.0000   YZ=             -0.0000

 Summary of Natural Population Analysis:

                                     Natural Population
             Natural    ---------------------------------------------
  Atom No    Charge        Core      Valence    Rydberg      Total
 --------------------------------------------------------------------
   Cl  1    0.56252     10.00000     6.43748    0.00000    16.43748
    F  2   -0.07353      2.00000     7.07353    0.00000     9.07353
    F  3   -0.24450      2.00000     7.24450    0.00000     9.24450
    F  4   -0.24450      2.00000     7.24450    0.00000     9.24450
 ====================================================================
 * Total *  0.00000     16.00000    28.00000    0.00000    44.00000

 Normal termination of Gaussian 16 at Mon Nov 18 15:41:36 2024.
