 Gaussian 16, Revision C.01,
 Gaussian 16:  ES64L-G16RevC.01  3-Jul-2019

 -----------------------------------
 #Opt=VTight RHF/STO-3G Pop=NBO7Read
 -----------------------------------

 --------
 NBO-LiOH
 --------
 Symbolic Z-matrix:
 Charge =  0 Multiplicity = 1

 SCF Done:  E(RHF) =  -81.7685651326     A.U. after   10 cycles
 SCF Done:  E(RHF) =  -81.7685651803     A.U. after    6 cycles
 SCF Done:  E(RHF) =  -81.7685651808     A.U. after    5 cycles
 SCF Done:  E(RHF) =  -81.7685651808     A.U. after    4 cycles
 Optimization completed.
    -- Stationary point found.

                         Standard orientation:
 ---------------------------------------------------------------------
 Center     Atomic      Atomic             Coordinates (Angstroms)
 Number     Number       Type             X           Y           Z
 ---------------------------------------------------------------------
      1          8           0        0.000000    0.000000    0.277152
      2          3           0        0.000000    0.000000   -1.155108
      3          1           0        0.000000    0.000000    1.248109
 ---------------------------------------------------------------------

 The electronic state is 1-SG.
 Alpha  occ. eigenvalues --  -20.20133  -2.29786  -1.15261  -0.50950  -0.32323
 Alpha  occ. eigenvalues --   -0.32323
 Alpha virt. eigenvalues --    0.10542   0.26713   0.26713   0.39860   0.77855

 Mulliken charges:
               1
     1  O   -0.343249
     2  Li   0.176780
     3  H    0.166469
 Sum of Mulliken charges =   0.00000

 Dipole moment (field-independent basis, Debye):
    X=              0.0000    Y=              0.0000    Z=             -1.4735  Tot=              1.4735
 Quadrupole moment (field-independent basis, Debye-Ang):
   XX=             -9.3637   YY=             -9.3637   ZZ=             -1.9473
   XY=              0.0000   XZ=              0.0000   YZ=              0.0000

 Summary of Natural Population Analysis:

                                     Natural Population
             Natural    ---------------------------------------------
  Atom No    Charge        Core      Valence    Rydberg      Total
 --------------------------------------------------------------------
    O  1   -0.75695      1.99999     6.75695    0.00000     8.75695
   Li  2    0.52700      1.99973     0.03841    0.43486     2.47300
    H  3    0.22995      0.00000     0.77005    0.00000     0.77005
 ====================================================================
 * Total *  0.00000      3.99972     7.56542    0.43486    12.00000

 Normal termination of Gaussian 16 at Wed Jul 24 10:54:14 2024.
