 Gaussian 16, Revision C.01,
 Gaussian 16:  ES64L-G16RevC.01  3-Jul-2019

 -----------------------------------------------------------------
 #RHF/STO-3G int=nobasistransform Symmetry=None 5D 7F Pop=NBO7Read
 -----------------------------------------------------------------

 ---------
 mol51-NBO
 ---------
 Symbolic Z-matrix:
 Charge =  0 Multiplicity = 1

                          Input orientation:
 ---------------------------------------------------------------------
 Center     Atomic      Atomic             Coordinates (Angstroms)
 Number     Number       Type             X           Y           Z
 ---------------------------------------------------------------------
      1          6           0        0.000000    0.000000   -1.121389
      2         17           0        0.000000    0.000000    0.655951
      3          1           0        0.000000    1.029318   -1.474280
      4          1           0        0.891415   -0.514659   -1.474280
      5          1           0       -0.891415   -0.514659   -1.474280
 ---------------------------------------------------------------------

 SCF Done:  E(RHF) =  -493.722644493     A.U. after    8 cycles

 Alpha  occ. eigenvalues -- -103.68694 -11.12562 -10.37049  -7.81467  -7.80904
 Alpha  occ. eigenvalues --   -7.80904  -1.06847  -0.86838  -0.59506  -0.59506
 Alpha  occ. eigenvalues --   -0.49041  -0.38169  -0.38169
 Alpha virt. eigenvalues --    0.37751   0.66073   0.66073   0.68521

 Mulliken charges:
               1
     1  C   -0.142149
     2  Cl  -0.163594
     3  H    0.101914
     4  H    0.101914
     5  H    0.101914
 Sum of Mulliken charges =  -0.00000

 Dipole moment (field-independent basis, Debye):
    X=              0.0000    Y=             -0.0000    Z=             -2.2644  Tot=              2.2644
 Quadrupole moment (field-independent basis, Debye-Ang):
   XX=            -18.3933   YY=            -18.3933   ZZ=            -17.6086
   XY=              0.0000   XZ=              0.0000   YZ=              0.0000

 Summary of Natural Population Analysis:

                                     Natural Population
             Natural    ---------------------------------------------
  Atom No    Charge        Core      Valence    Rydberg      Total
 --------------------------------------------------------------------
    C  1   -0.03190      2.00000     4.03190    0.00000     6.03190
   Cl  2   -0.18082     10.00000     7.18082    0.00000    17.18082
    H  3    0.07091      0.00000     0.92909    0.00000     0.92909
    H  4    0.07091      0.00000     0.92909    0.00000     0.92909
    H  5    0.07091      0.00000     0.92909    0.00000     0.92909
 ====================================================================
 * Total *  0.00000     12.00000    14.00000    0.00000    26.00000

 Normal termination of Gaussian 16 at Mon Nov 18 15:41:19 2024.
