 Gaussian 16, Revision C.01,
 Gaussian 16:  ES64L-G16RevC.01  3-Jul-2019

 -----------------------------------------------------------------
 #RHF/STO-3G int=nobasistransform Symmetry=None 5D 7F Pop=NBO7Read
 -----------------------------------------------------------------

 ---------
 mol39-NBO
 ---------
 Symbolic Z-matrix:
 Charge =  0 Multiplicity = 1

                          Input orientation:
 ---------------------------------------------------------------------
 Center     Atomic      Atomic             Coordinates (Angstroms)
 Number     Number       Type             X           Y           Z
 ---------------------------------------------------------------------
      1         11           0        0.000000    0.000000    1.576262
      2         11           0        0.000000    0.000000   -1.576262
 ---------------------------------------------------------------------

 SCF Done:  E(RHF) =  -319.309162995     A.U. after    8 cycles

 Alpha  occ. eigenvalues --  -40.03242 -40.03233  -2.61856  -2.61849  -1.25864
 Alpha  occ. eigenvalues --   -1.25864  -1.25834  -1.25820  -1.25820  -1.25640
 Alpha  occ. eigenvalues --    0.19724
 Alpha virt. eigenvalues --    0.45764   0.72823   0.78730   0.78730   0.83866
 Alpha virt. eigenvalues --    0.83866   0.97221

 Mulliken charges:
               1
     1  Na  -0.000000
     2  Na   0.000000
 Sum of Mulliken charges =  -0.00000

 Dipole moment (field-independent basis, Debye):
    X=             -0.0000    Y=             -0.0000    Z=             -0.0000  Tot=              0.0000
 Quadrupole moment (field-independent basis, Debye-Ang):
   XX=            -10.7677   YY=            -10.7677   ZZ=             -3.7852
   XY=              0.0000   XZ=              0.0000   YZ=              0.0000

 Summary of Natural Population Analysis:

                                     Natural Population
             Natural    ---------------------------------------------
  Atom No    Charge        Core      Valence    Rydberg      Total
 --------------------------------------------------------------------
   Na  1    0.00000      9.99993     0.97467    0.02540    11.00000
   Na  2    0.00000      9.99993     0.97467    0.02540    11.00000
 ====================================================================
 * Total *  0.00000     19.99985     1.94935    0.05080    22.00000

 Normal termination of Gaussian 16 at Mon Nov 18 15:41:22 2024.
