 Gaussian 16, Revision C.01,
 Gaussian 16:  ES64L-G16RevC.01  3-Jul-2019

 ----------------------------------------------------
 #OPT=VeryTight Int=UltraFine RHF/STO-3G Pop=NBO7Read
 ----------------------------------------------------

 ---------
 NBO-LiNH2
 ---------
 Symbolic Z-matrix:
 Charge =  0 Multiplicity = 1

 SCF Done:  E(RHF) =  -62.2065050670     A.U. after   11 cycles
 SCF Done:  E(RHF) =  -62.2065053802     A.U. after    7 cycles
 SCF Done:  E(RHF) =  -62.2065054323     A.U. after    7 cycles
 Optimization completed.
    -- Stationary point found.

                         Standard orientation:
 ---------------------------------------------------------------------
 Center     Atomic      Atomic             Coordinates (Angstroms)
 Number     Number       Type             X           Y           Z
 ---------------------------------------------------------------------
      1          7           0       -0.000000    0.000000    0.301445
      2          3           0        0.000000    0.000000   -1.333312
      3          1           0       -0.000000    0.799559    0.944908
      4          1           0       -0.000000   -0.799559    0.944908
 ---------------------------------------------------------------------

 The electronic state is 1-A1.
 Alpha  occ. eigenvalues --  -15.21659  -2.29192  -0.96418  -0.49021  -0.37095
 Alpha  occ. eigenvalues --   -0.23180
 Alpha virt. eigenvalues --    0.10287   0.21158   0.26055   0.41969   0.77565
 Alpha virt. eigenvalues --    0.82765

 Mulliken charges:
               1
     1  N   -0.457189
     2  Li   0.218307
     3  H    0.119441
     4  H    0.119441
 Sum of Mulliken charges =  -0.00000

 Dipole moment (field-independent basis, Debye):
    X=             -0.0000    Y=              0.0000    Z=             -2.2384  Tot=              2.2384
 Quadrupole moment (field-independent basis, Debye-Ang):
   XX=            -11.8158   YY=             -8.1794   ZZ=             -1.6779
   XY=              0.0000   XZ=             -0.0000   YZ=              0.0000

 Summary of Natural Population Analysis:

                                     Natural Population
             Natural    ---------------------------------------------
  Atom No    Charge        Core      Valence    Rydberg      Total
 --------------------------------------------------------------------
    N  1   -0.85309      2.00000     5.85309    0.00000     7.85309
   Li  2    0.57267      1.99984     0.09541    0.33207     2.42733
    H  3    0.14021      0.00000     0.85979    0.00000     0.85979
    H  4    0.14021      0.00000     0.85979    0.00000     0.85979
 ====================================================================
 * Total *  0.00000      3.99984     7.66809    0.33207    12.00000

 Normal termination of Gaussian 16 at Wed Jul 24 10:54:12 2024.
