 Gaussian 16, Revision C.01,
 Gaussian 16:  ES64L-G16RevC.01  3-Jul-2019

 ----------------------------------------------------
 #OPT=VeryTight Int=UltraFine RHF/6-31G* Pop=NBO7Read
 ----------------------------------------------------

 -----
 NBO-a
 -----
 Symbolic Z-matrix:
 Charge =  0 Multiplicity = 1

 SCF Done:  E(RHF) =  -1.01632567123     A.U. after    4 cycles
 SCF Done:  E(RHF) =  -1.04750726351     A.U. after    5 cycles
 SCF Done:  E(RHF) =  -1.09944593246     A.U. after    4 cycles
 SCF Done:  E(RHF) =  -1.12668435773     A.U. after    5 cycles
 SCF Done:  E(RHF) =  -1.12682737081     A.U. after    4 cycles
 SCF Done:  E(RHF) =  -1.12682782541     A.U. after    3 cycles
 Optimization completed.
    -- Stationary point found.

                         Standard orientation:
 ---------------------------------------------------------------------
 Center     Atomic      Atomic             Coordinates (Angstroms)
 Number     Number       Type             X           Y           Z
 ---------------------------------------------------------------------
      1          1           0        0.000000    0.000000    0.364980
      2          1           0        0.000000    0.000000   -0.364980
 ---------------------------------------------------------------------

 The electronic state is 1-SGG.
 Alpha  occ. eigenvalues --   -0.59888
 Alpha virt. eigenvalues --    0.24115   0.76989   1.41787

 Mulliken charges:
               1
     1  H    0.000000
     2  H    0.000000
 Sum of Mulliken charges =   0.00000

 Dipole moment (field-independent basis, Debye):
    X=             -0.0000    Y=              0.0000    Z=              0.0000  Tot=              0.0000
 Quadrupole moment (field-independent basis, Debye-Ang):
   XX=             -2.0275   YY=             -2.0275   ZZ=             -1.6134
   XY=              0.0000   XZ=             -0.0000   YZ=              0.0000

 Summary of Natural Population Analysis:

                                     Natural Population
             Natural    ---------------------------------------------
  Atom No    Charge        Core      Valence    Rydberg      Total
 --------------------------------------------------------------------
    H  1    0.00000      0.00000     1.00000    0.00000     1.00000
    H  2    0.00000      0.00000     1.00000    0.00000     1.00000
 ====================================================================
 * Total *  0.00000      0.00000     2.00000    0.00000     2.00000

 Normal termination of Gaussian 16 at Mon Jul 29 16:44:14 2024.
