 Gaussian 16, Revision C.01,
 Gaussian 16:  ES64L-G16RevC.01  3-Jul-2019

 -----------------------------------------------------------------
 #RHF/6-31G* int=nobasistransform Symmetry=None 5D 7F Pop=NBO7Read
 -----------------------------------------------------------------

 ----------
 mol114-NBO
 ----------
 Symbolic Z-matrix:
 Charge =  0 Multiplicity = 1

                          Input orientation:
 ---------------------------------------------------------------------
 Center     Atomic      Atomic             Coordinates (Angstroms)
 Number     Number       Type             X           Y           Z
 ---------------------------------------------------------------------
      1          6           0        0.000000    1.165725   -0.199950
      2          8           0        0.000000    0.000000    0.600110
      3          6           0        0.000000   -1.165725   -0.199950
      4          1           0        0.000000    2.017769    0.480203
      5          1           0        0.891784    1.214320   -0.840474
      6          1           0       -0.891784    1.214320   -0.840474
      7          1           0        0.000000   -2.017769    0.480203
      8          1           0       -0.891784   -1.214320   -0.840474
      9          1           0        0.891784   -1.214320   -0.840474
 ---------------------------------------------------------------------

 SCF Done:  E(RHF) =  -154.062305462     A.U. after   11 cycles

 Alpha  occ. eigenvalues --  -20.55612 -11.26664 -11.26662  -1.36725  -0.96533
 Alpha  occ. eigenvalues --   -0.87374  -0.65505  -0.64729  -0.63562  -0.54851
 Alpha  occ. eigenvalues --   -0.52359  -0.47936  -0.42022
 Alpha virt. eigenvalues --    0.23393   0.29642   0.30128   0.31516   0.31526
 Alpha virt. eigenvalues --    0.34476   0.34772   0.42775   0.72784   0.76979
 Alpha virt. eigenvalues --    0.77272   0.78677   0.80928   0.95755   1.10465

 Mulliken charges:
               1
     1  C   -0.152218
     2  O   -0.632797
     3  C   -0.152218
     4  H    0.178280
     5  H    0.145168
     6  H    0.145168
     7  H    0.178280
     8  H    0.145168
     9  H    0.145168
 Sum of Mulliken charges =  -0.00000

 Dipole moment (field-independent basis, Debye):
    X=             -0.0000    Y=              0.0000    Z=             -1.5878  Tot=              1.5878
 Quadrupole moment (field-independent basis, Debye-Ang):
   XX=            -20.2217   YY=            -16.9023   ZZ=            -21.2021
   XY=             -0.0000   XZ=              0.0000   YZ=              0.0000

 Summary of Natural Population Analysis:

                                     Natural Population
             Natural    ---------------------------------------------
  Atom No    Charge        Core      Valence    Rydberg      Total
 --------------------------------------------------------------------
    C  1   -0.23262      1.99999     4.21281    0.01981     6.23262
    O  2   -0.64210      1.99999     6.62395    0.01816     8.64210
    C  3   -0.23262      1.99999     4.21281    0.01981     6.23262
    H  4    0.20444      0.00000     0.79490    0.00066     0.79556
    H  5    0.17461      0.00000     0.82374    0.00165     0.82539
    H  6    0.17461      0.00000     0.82374    0.00165     0.82539
    H  7    0.20444      0.00000     0.79490    0.00066     0.79556
    H  8    0.17461      0.00000     0.82374    0.00165     0.82539
    H  9    0.17461      0.00000     0.82374    0.00165     0.82539
 ====================================================================
 * Total *  0.00000      5.99998    19.93432    0.06570    26.00000

 Normal termination of Gaussian 16 at Mon Nov 18 16:41:12 2024.
