 Gaussian 16, Revision C.01,
 Gaussian 16:  ES64L-G16RevC.01  3-Jul-2019

 -----------------------------------------------------------------
 #RHF/6-31G* int=nobasistransform Symmetry=None 5D 7F Pop=NBO7Read
 -----------------------------------------------------------------

 ---------
 mol95-NBO
 ---------
 Symbolic Z-matrix:
 Charge =  0 Multiplicity = 1

                          Input orientation:
 ---------------------------------------------------------------------
 Center     Atomic      Atomic             Coordinates (Angstroms)
 Number     Number       Type             X           Y           Z
 ---------------------------------------------------------------------
      1          6           0        0.000000    0.000000    0.759945
      2         17           0        0.000000    1.474200   -0.215115
      3         17           0        0.000000   -1.474200   -0.215115
      4          1           0       -0.894585    0.000000    1.377127
      5          1           0        0.894585    0.000000    1.377127
 ---------------------------------------------------------------------

 SCF Done:  E(RHF) =  -957.981349403     A.U. after   11 cycles

 Alpha  occ. eigenvalues -- -104.83093-104.83091 -11.36289 -10.57076 -10.57075
 Alpha  occ. eigenvalues --   -8.03934  -8.03933  -8.03575  -8.03575  -8.03564
 Alpha  occ. eigenvalues --   -8.03564  -1.19818  -1.09979  -0.89867  -0.68006
 Alpha  occ. eigenvalues --   -0.62026  -0.58842  -0.47404  -0.47109  -0.44935
 Alpha  occ. eigenvalues --   -0.44677
 Alpha virt. eigenvalues --    0.15331   0.21046   0.23930   0.25944   0.52557
 Alpha virt. eigenvalues --    0.58061   0.59927   0.61128   0.61332   0.64795
 Alpha virt. eigenvalues --    0.66108   0.70560   0.72409   0.72737   0.85792

 Mulliken charges:
               1
     1  C   -0.466925
     2  Cl  -0.027803
     3  Cl  -0.027803
     4  H    0.261266
     5  H    0.261266
 Sum of Mulliken charges =  -0.00000

 Dipole moment (field-independent basis, Debye):
    X=              0.0000    Y=              0.0000    Z=              1.9800  Tot=              1.9800
 Quadrupole moment (field-independent basis, Debye-Ang):
   XX=            -31.5707   YY=            -34.7474   ZZ=            -29.9177
   XY=             -0.0000   XZ=             -0.0000   YZ=             -0.0000

 Summary of Natural Population Analysis:

                                     Natural Population
             Natural    ---------------------------------------------
  Atom No    Charge        Core      Valence    Rydberg      Total
 --------------------------------------------------------------------
    C  1   -0.42712      1.99999     4.40490    0.02223     6.42712
   Cl  2   -0.04302      9.99999     7.01718    0.02585    17.04302
   Cl  3   -0.04302      9.99999     7.01718    0.02585    17.04302
    H  4    0.25658      0.00000     0.74085    0.00257     0.74342
    H  5    0.25658      0.00000     0.74085    0.00257     0.74342
 ====================================================================
 * Total *  0.00000     21.99997    19.92096    0.07907    42.00000

 Normal termination of Gaussian 16 at Mon Nov 18 16:40:42 2024.
