 Gaussian 16, Revision C.01,
 Gaussian 16:  ES64L-G16RevC.01  3-Jul-2019

 ------------------------
 #RHF/6-31G* Pop=NBO7Read
 ------------------------

 -----
 NBO-a
 -----
 Symbolic Z-matrix:
 Charge =  0 Multiplicity = 1

                         Standard orientation:
 ---------------------------------------------------------------------
 Center     Atomic      Atomic             Coordinates (Angstroms)
 Number     Number       Type             X           Y           Z
 ---------------------------------------------------------------------
      1          6           0        0.666681   -0.016874   -0.000000
      2          8           0       -0.759100    0.126815   -0.000000
      3          1           0        1.099950    0.984911    0.000001
      4          1           0        1.032252   -0.545686   -0.886498
      5          1           0        1.032251   -0.545686    0.886498
      6          1           0       -1.091740   -0.806816   -0.000000
 ---------------------------------------------------------------------

 SCF Done:  E(RHF) =  -115.031822221     A.U. after   11 cycles

 The electronic state is 1-A.
 Alpha  occ. eigenvalues --  -20.56445 -11.27287  -1.34326  -0.92032  -0.67837
 Alpha  occ. eigenvalues --   -0.61466  -0.58367  -0.50256  -0.44665
 Alpha virt. eigenvalues --    0.21842   0.27539   0.31922   0.32635   0.37512
 Alpha virt. eigenvalues --    0.76220   0.77345   0.78417   1.04184   1.12208
 Alpha virt. eigenvalues --    1.14284   1.16200   1.20467   1.25423   1.26906

 Mulliken charges:
               1
     1  C   -0.174398
     2  O   -0.721953
     3  H    0.175875
     4  H    0.144777
     5  H    0.144776
     6  H    0.430924
 Sum of Mulliken charges =  -0.00000

 Dipole moment (field-independent basis, Debye):
    X=              1.1097    Y=             -1.7082    Z=             -0.0000  Tot=              2.0370
 Quadrupole moment (field-independent basis, Debye-Ang):
   XX=            -12.9210   YY=            -11.8950   ZZ=            -13.7247
   XY=              2.3163   XZ=             -0.0000   YZ=              0.0000

 Summary of Natural Population Analysis:

                                     Natural Population
             Natural    ---------------------------------------------
  Atom No    Charge        Core      Valence    Rydberg      Total
 --------------------------------------------------------------------
    C  1   -0.23815      2.00000     4.22158    0.01658     6.23815
    O  2   -0.79318      2.00000     6.77747    0.01571     8.79318
    H  3    0.20033      0.00000     0.79902    0.00065     0.79967
    H  4    0.17587      0.00000     0.82309    0.00104     0.82413
    H  5    0.17587      0.00000     0.82309    0.00104     0.82413
    H  6    0.47927      0.00000     0.51939    0.00134     0.52073
 ====================================================================
 * Total *  0.00000      3.99999    13.96363    0.03638    18.00000

 Normal termination of Gaussian 16 at Wed Jul 24 12:08:06 2024.
