 Gaussian 16, Revision C.01,
 Gaussian 16:  ES64L-G16RevC.01  3-Jul-2019

 -----------------------------------------------------------------
 #RHF/6-31G* int=nobasistransform Symmetry=None 5D 7F Pop=NBO7Read
 -----------------------------------------------------------------

 ---------
 mol60-NBO
 ---------
 Symbolic Z-matrix:
 Charge =  0 Multiplicity = 1

                          Input orientation:
 ---------------------------------------------------------------------
 Center     Atomic      Atomic             Coordinates (Angstroms)
 Number     Number       Type             X           Y           Z
 ---------------------------------------------------------------------
      1          6           0        0.000000    0.000000    0.000000
      2         17           0        1.021340    1.021340    1.021340
      3         17           0       -1.021340   -1.021340    1.021340
      4         17           0       -1.021340    1.021340   -1.021340
      5         17           0        1.021340   -1.021340   -1.021340
 ---------------------------------------------------------------------

 SCF Done:  E(RHF) =  -1875.73811154     A.U. after   10 cycles

 Alpha  occ. eigenvalues -- -104.86235-104.86235-104.86235-104.86232 -11.49522
 Alpha  occ. eigenvalues --  -10.60216 -10.60216 -10.60216 -10.60213  -8.07077
 Alpha  occ. eigenvalues --   -8.07075  -8.07075  -8.07075  -8.06671  -8.06671
 Alpha  occ. eigenvalues --   -8.06671  -8.06671  -8.06671  -8.06671  -8.06671
 Alpha  occ. eigenvalues --   -8.06671  -1.29274  -1.13404  -1.13404  -1.13404
 Alpha  occ. eigenvalues --   -0.83929  -0.66440  -0.66440  -0.66440  -0.53332
 Alpha  occ. eigenvalues --   -0.53332  -0.49227  -0.49227  -0.49227  -0.46400
 Alpha  occ. eigenvalues --   -0.46400  -0.46400
 Alpha virt. eigenvalues --    0.09249   0.15511   0.15511   0.15511   0.42220
 Alpha virt. eigenvalues --    0.51208   0.51208   0.51208   0.57618   0.57618
 Alpha virt. eigenvalues --    0.57618   0.62109   0.62109   0.62311   0.67228

 Mulliken charges:
               1
     1  C   -0.375018
     2  Cl   0.093755
     3  Cl   0.093755
     4  Cl   0.093755
     5  Cl   0.093755
 Sum of Mulliken charges =  -0.00000

 Dipole moment (field-independent basis, Debye):
    X=              0.0000    Y=             -0.0000    Z=              0.0000  Tot=              0.0000
 Quadrupole moment (field-independent basis, Debye-Ang):
   XX=            -55.8479   YY=            -55.8479   ZZ=            -55.8479
   XY=              0.0000   XZ=             -0.0000   YZ=              0.0000

 Summary of Natural Population Analysis:

                                     Natural Population
             Natural    ---------------------------------------------
  Atom No    Charge        Core      Valence    Rydberg      Total
 --------------------------------------------------------------------
    C  1   -0.21741      1.99999     4.15848    0.05894     6.21741
   Cl  2    0.05435      9.99999     6.91614    0.02952    16.94565
   Cl  3    0.05435      9.99999     6.91614    0.02952    16.94565
   Cl  4    0.05435      9.99999     6.91614    0.02952    16.94565
   Cl  5    0.05435      9.99999     6.91614    0.02952    16.94565
 ====================================================================
 * Total *  0.00000     41.99995    31.82303    0.17702    74.00000

 Normal termination of Gaussian 16 at Mon Nov 18 16:40:43 2024.
