 Gaussian 16, Revision C.01,
 Gaussian 16:  ES64L-G16RevC.01  3-Jul-2019

 -----------------------------------------------------------------
 #RHF/6-31G* int=nobasistransform Symmetry=None 5D 7F Pop=NBO7Read
 -----------------------------------------------------------------

 ----------
 mol128-NBO
 ----------
 Symbolic Z-matrix:
 Charge =  0 Multiplicity = 1

                          Input orientation:
 ---------------------------------------------------------------------
 Center     Atomic      Atomic             Coordinates (Angstroms)
 Number     Number       Type             X           Y           Z
 ---------------------------------------------------------------------
      1          8           0        0.027191    1.363691   -0.167516
      2          6           0       -0.000926    0.036459    0.370128
      3          1           0        0.859465    1.775647    0.121307
      4          1           0        0.007371    0.082145    1.470506
      5          6           0       -1.313275   -0.563514   -0.088979
      6          6           0        1.200721   -0.764480   -0.104920
      7          1           0       -1.334005   -0.607253   -1.181009
      8          1           0        1.202843   -0.807817   -1.197189
      9          1           0       -2.147812    0.054993    0.247676
     10          1           0        2.136462   -0.299324    0.223164
     11          1           0       -1.438709   -1.574275    0.308340
     12          1           0        1.177736   -1.784436    0.289967
 ---------------------------------------------------------------------

 SCF Done:  E(RHF) =  -193.112345303     A.U. after   12 cycles

 Alpha  occ. eigenvalues --  -20.55055 -11.27612 -11.21391 -11.20621  -1.34825
 Alpha  occ. eigenvalues --   -1.04201  -0.93832  -0.79463  -0.69025  -0.62460
 Alpha  occ. eigenvalues --   -0.60226  -0.54479  -0.53227  -0.52337  -0.50761
 Alpha  occ. eigenvalues --   -0.47024  -0.43204
 Alpha virt. eigenvalues --    0.21478   0.26800   0.29299   0.29448   0.30888
 Alpha virt. eigenvalues --    0.32063   0.35116   0.35229   0.39737   0.42416
 Alpha virt. eigenvalues --    0.44444   0.71332   0.72606   0.79280   0.80016

 Mulliken charges:
               1
     1  O   -0.782619
     2  C    0.190475
     3  H    0.443041
     4  H    0.142873
     5  C   -0.491722
     6  C   -0.508104
     7  H    0.173436
     8  H    0.177422
     9  H    0.182045
    10  H    0.152943
    11  H    0.156176
    12  H    0.164034
 Sum of Mulliken charges =   0.00000

 Dipole moment (field-independent basis, Debye):
    X=              1.2657    Y=             -0.8091    Z=              0.9778  Tot=              1.7924
 Quadrupole moment (field-independent basis, Debye-Ang):
   XX=            -25.4540   YY=            -27.1248   ZZ=            -26.7436
   XY=              2.8520   XZ=              0.3123   YZ=              1.2571

 Summary of Natural Population Analysis:

                                     Natural Population
             Natural    ---------------------------------------------
  Atom No    Charge        Core      Valence    Rydberg      Total
 --------------------------------------------------------------------
    O  1   -0.81351      1.99999     6.79722    0.01630     8.81351
    C  2    0.15448      1.99999     3.82472    0.02081     5.84552
    H  3    0.47802      0.00000     0.52065    0.00133     0.52198
    H  4    0.18792      0.00000     0.80970    0.00238     0.81208
    C  5   -0.65625      1.99999     4.64087    0.01539     6.65625
    C  6   -0.66725      1.99999     4.65302    0.01424     6.66725
    H  7    0.22060      0.00000     0.77790    0.00149     0.77940
    H  8    0.22244      0.00000     0.77594    0.00162     0.77756
    H  9    0.22943      0.00000     0.76953    0.00105     0.77057
    H 10    0.21037      0.00000     0.78862    0.00102     0.78963
    H 11    0.21383      0.00000     0.78537    0.00081     0.78617
    H 12    0.21994      0.00000     0.77907    0.00099     0.78006
 ====================================================================
 * Total *  0.00000      7.99997    25.92260    0.07743    34.00000

 Normal termination of Gaussian 16 at Mon Nov 18 16:41:12 2024.
