 Gaussian 16, Revision C.01,
 Gaussian 16:  ES64L-G16RevC.01  3-Jul-2019

 -----------------------------------------------------------------
 #RHF/STO-3G int=nobasistransform Symmetry=None 5D 7F Pop=NBO7Read
 -----------------------------------------------------------------

 ---------
 mol44-NBO
 ---------
 Symbolic Z-matrix:
 Charge =  0 Multiplicity = 1

                          Input orientation:
 ---------------------------------------------------------------------
 Center     Atomic      Atomic             Coordinates (Angstroms)
 Number     Number       Type             X           Y           Z
 ---------------------------------------------------------------------
      1         11           0        0.000000    0.000000   -1.451660
      2         17           0        0.000000    0.000000    0.939310
 ---------------------------------------------------------------------

 SCF Done:  E(RHF) =  -614.522307566     A.U. after    8 cycles

 Alpha  occ. eigenvalues -- -103.32089 -40.29408 -10.03769  -7.47931  -7.47777
 Alpha  occ. eigenvalues --   -7.47777  -2.84400  -1.49866  -1.49866  -1.49752
 Alpha  occ. eigenvalues --   -0.77072  -0.21340  -0.19724  -0.19724
 Alpha virt. eigenvalues --    0.38058   0.66686   0.66686   0.80889

 Mulliken charges:
               1
     1  Na   0.809075
     2  Cl  -0.809075
 Sum of Mulliken charges =  -0.00000

 Dipole moment (field-independent basis, Debye):
    X=             -0.0000    Y=             -0.0000    Z=             -9.9916  Tot=              9.9916
 Quadrupole moment (field-independent basis, Debye-Ang):
   XX=            -15.7894   YY=            -15.7894   ZZ=             -9.4985
   XY=             -0.0000   XZ=             -0.0000   YZ=              0.0000

 Summary of Natural Population Analysis:

                                     Natural Population
             Natural    ---------------------------------------------
  Atom No    Charge        Core      Valence    Rydberg      Total
 --------------------------------------------------------------------
   Na  1    0.91175      9.99991     0.06475    0.02359    10.08825
   Cl  2   -0.91175      9.99997     7.91178    0.00000    17.91175
 ====================================================================
 * Total *  0.00000     19.99987     7.97654    0.02359    28.00000

 Normal termination of Gaussian 16 at Mon Nov 18 15:41:31 2024.
