 Gaussian 16, Revision C.01,
 Gaussian 16:  ES64L-G16RevC.01  3-Jul-2019

 -----------------------------------------------------------------
 #RHF/6-31G* int=nobasistransform Symmetry=None 5D 7F Pop=NBO7Read
 -----------------------------------------------------------------

 ---------
 mol64-NBO
 ---------
 Symbolic Z-matrix:
 Charge =  0 Multiplicity = 1

                          Input orientation:
 ---------------------------------------------------------------------
 Center     Atomic      Atomic             Coordinates (Angstroms)
 Number     Number       Type             X           Y           Z
 ---------------------------------------------------------------------
      1         14           0        0.000000    0.000000    0.000000
      2          9           0        0.912806    0.912806    0.912806
      3          9           0       -0.912806   -0.912806    0.912806
      4          9           0       -0.912806    0.912806   -0.912806
      5          9           0        0.912806   -0.912806   -0.912806
 ---------------------------------------------------------------------

 SCF Done:  E(RHF) =  -686.939927665     A.U. after    9 cycles

 Alpha  occ. eigenvalues --  -68.96281 -26.33965 -26.33965 -26.33965 -26.33965
 Alpha  occ. eigenvalues --   -6.29900  -4.40840  -4.40840  -4.40840  -1.66357
 Alpha  occ. eigenvalues --   -1.62790  -1.62790  -1.62790  -0.85232  -0.77187
 Alpha  occ. eigenvalues --   -0.77187  -0.77187  -0.71939  -0.71939  -0.70194
 Alpha  occ. eigenvalues --   -0.70194  -0.70194  -0.67182  -0.67182  -0.67182
 Alpha virt. eigenvalues --    0.15782   0.22361   0.22361   0.22361   0.43804
 Alpha virt. eigenvalues --    0.47153   0.47153   0.47153   0.80203   0.80203
 Alpha virt. eigenvalues --    1.15172   1.15172   1.15172   1.47896   1.47896

 Mulliken charges:
               1
     1  Si   2.006016
     2  F   -0.501504
     3  F   -0.501504
     4  F   -0.501504
     5  F   -0.501504
 Sum of Mulliken charges =  -0.00000

 Dipole moment (field-independent basis, Debye):
    X=             -0.0000    Y=             -0.0000    Z=             -0.0000  Tot=              0.0000
 Quadrupole moment (field-independent basis, Debye-Ang):
   XX=            -32.4114   YY=            -32.4114   ZZ=            -32.4114
   XY=             -0.0000   XZ=             -0.0000   YZ=             -0.0000

 Summary of Natural Population Analysis:

                                     Natural Population
             Natural    ---------------------------------------------
  Atom No    Charge        Core      Valence    Rydberg      Total
 --------------------------------------------------------------------
   Si  1    2.73247      9.99995     1.19739    0.07018    11.26753
    F  2   -0.68312      2.00000     7.67033    0.01279     9.68312
    F  3   -0.68312      2.00000     7.67033    0.01279     9.68312
    F  4   -0.68312      2.00000     7.67033    0.01279     9.68312
    F  5   -0.68312      2.00000     7.67033    0.01279     9.68312
 ====================================================================
 * Total *  0.00000     17.99993    31.87871    0.12136    50.00000

 Normal termination of Gaussian 16 at Mon Nov 18 16:40:44 2024.
