 Gaussian 16, Revision C.01,
 Gaussian 16:  ES64L-G16RevC.01  3-Jul-2019

 -----------------------------------------------------------------
 #RHF/STO-3G int=nobasistransform Symmetry=None 5D 7F Pop=NBO7Read
 -----------------------------------------------------------------

 ---------
 mol80-NBO
 ---------
 Symbolic Z-matrix:
 Charge =  0 Multiplicity = 1

                          Input orientation:
 ---------------------------------------------------------------------
 Center     Atomic      Atomic             Coordinates (Angstroms)
 Number     Number       Type             X           Y           Z
 ---------------------------------------------------------------------
      1          6           0        0.000000    0.866998    0.000000
      2          6           0        0.750842   -0.433499    0.000000
      3          6           0       -0.750842   -0.433499    0.000000
      4          1           0        0.000000    1.455762    0.910526
      5          1           0        0.000000    1.455762   -0.910526
      6          1           0        1.260727   -0.727881   -0.910526
      7          1           0        1.260727   -0.727881    0.910526
      8          1           0       -1.260727   -0.727881    0.910526
      9          1           0       -1.260727   -0.727881   -0.910526
 ---------------------------------------------------------------------

 SCF Done:  E(RHF) =  -115.666071643     A.U. after    8 cycles

 Alpha  occ. eigenvalues --  -11.03677 -11.03677 -11.03673  -1.08995  -0.78175
 Alpha  occ. eigenvalues --   -0.78175  -0.63995  -0.58862  -0.47926  -0.47926
 Alpha  occ. eigenvalues --   -0.38423  -0.38423
 Alpha virt. eigenvalues --    0.49650   0.56879   0.67323   0.71127   0.71127
 Alpha virt. eigenvalues --    0.79150   0.79151   0.85226   0.85227

 Mulliken charges:
               1
     1  C   -0.134336
     2  C   -0.134336
     3  C   -0.134336
     4  H    0.067168
     5  H    0.067168
     6  H    0.067168
     7  H    0.067168
     8  H    0.067168
     9  H    0.067168
 Sum of Mulliken charges =   0.00000

 Dipole moment (field-independent basis, Debye):
    X=             -0.0000    Y=             -0.0000    Z=             -0.0000  Tot=              0.0000
 Quadrupole moment (field-independent basis, Debye-Ang):
   XX=            -19.5163   YY=            -19.5163   ZZ=            -17.7666
   XY=              0.0000   XZ=              0.0000   YZ=              0.0000

 Summary of Natural Population Analysis:

                                     Natural Population
             Natural    ---------------------------------------------
  Atom No    Charge        Core      Valence    Rydberg      Total
 --------------------------------------------------------------------
    C  1   -0.09475      2.00000     4.09475    0.00000     6.09475
    C  2   -0.09475      2.00000     4.09475    0.00000     6.09475
    C  3   -0.09475      2.00000     4.09475    0.00000     6.09475
    H  4    0.04737      0.00000     0.95263    0.00000     0.95263
    H  5    0.04737      0.00000     0.95263    0.00000     0.95263
    H  6    0.04737      0.00000     0.95263    0.00000     0.95263
    H  7    0.04737      0.00000     0.95263    0.00000     0.95263
    H  8    0.04737      0.00000     0.95263    0.00000     0.95263
    H  9    0.04737      0.00000     0.95263    0.00000     0.95263
 ====================================================================
 * Total *  0.00000      6.00000    18.00000    0.00000    24.00000

 Normal termination of Gaussian 16 at Mon Nov 18 15:41:33 2024.
