 Gaussian 16, Revision C.01,
 Gaussian 16:  ES64L-G16RevC.01  3-Jul-2019

 -----------------------------------------------------------------
 #RHF/STO-3G int=nobasistransform Symmetry=None 5D 7F Pop=NBO7Read
 -----------------------------------------------------------------

 ---------
 mol59-NBO
 ---------
 Symbolic Z-matrix:
 Charge =  0 Multiplicity = 1

                          Input orientation:
 ---------------------------------------------------------------------
 Center     Atomic      Atomic             Coordinates (Angstroms)
 Number     Number       Type             X           Y           Z
 ---------------------------------------------------------------------
      1          6           0        0.000000    0.000000    0.000000
      2          9           0        0.767436    0.767436    0.767436
      3          9           0       -0.767436   -0.767436    0.767436
      4          9           0       -0.767436    0.767436   -0.767436
      5          9           0        0.767436   -0.767436   -0.767436
 ---------------------------------------------------------------------

 SCF Done:  E(RHF) =  -429.574161572     A.U. after    8 cycles

 Alpha  occ. eigenvalues --  -26.00090 -26.00059 -26.00059 -26.00059 -11.37029
 Alpha  occ. eigenvalues --   -1.67619  -1.54457  -1.54457  -1.54457  -0.84836
 Alpha  occ. eigenvalues --   -0.72584  -0.72584  -0.72584  -0.55791  -0.55791
 Alpha  occ. eigenvalues --   -0.50949  -0.50949  -0.50949  -0.48729  -0.48729
 Alpha  occ. eigenvalues --   -0.48729
 Alpha virt. eigenvalues --    0.60379   0.60379   0.60379   0.62560

 Mulliken charges:
               1
     1  C    0.613711
     2  F   -0.153428
     3  F   -0.153428
     4  F   -0.153428
     5  F   -0.153428
 Sum of Mulliken charges =   0.00000

 Dipole moment (field-independent basis, Debye):
    X=              0.0000    Y=              0.0000    Z=              0.0000  Tot=              0.0000
 Quadrupole moment (field-independent basis, Debye-Ang):
   XX=            -22.3243   YY=            -22.3243   ZZ=            -22.3243
   XY=              0.0000   XZ=              0.0000   YZ=              0.0000

 Summary of Natural Population Analysis:

                                     Natural Population
             Natural    ---------------------------------------------
  Atom No    Charge        Core      Valence    Rydberg      Total
 --------------------------------------------------------------------
    C  1    0.76136      2.00000     3.23864    0.00000     5.23864
    F  2   -0.19034      2.00000     7.19034    0.00000     9.19034
    F  3   -0.19034      2.00000     7.19034    0.00000     9.19034
    F  4   -0.19034      2.00000     7.19034    0.00000     9.19034
    F  5   -0.19034      2.00000     7.19034    0.00000     9.19034
 ====================================================================
 * Total *  0.00000     10.00000    32.00000    0.00000    42.00000

 Normal termination of Gaussian 16 at Mon Nov 18 15:41:21 2024.
