 Gaussian 16, Revision C.01,
 Gaussian 16:  ES64L-G16RevC.01  3-Jul-2019

 -----------------------------------------------------------------
 #RHF/6-31G* int=nobasistransform Symmetry=None 5D 7F Pop=NBO7Read
 -----------------------------------------------------------------

 ----------
 mol134-NBO
 ----------
 Symbolic Z-matrix:
 Charge =  0 Multiplicity = 1

                          Input orientation:
 ---------------------------------------------------------------------
 Center     Atomic      Atomic             Coordinates (Angstroms)
 Number     Number       Type             X           Y           Z
 ---------------------------------------------------------------------
      1          7           0        0.000000    0.000000    1.424672
      2          6           0        0.000000    0.000000   -1.386178
      3          6           0        0.000000    1.144277    0.720306
      4          6           0        0.000000   -1.144277    0.720306
      5          6           0        0.000000   -1.196404   -0.672917
      6          6           0        0.000000    1.196404   -0.672917
      7          1           0        0.000000    0.000000   -2.473052
      8          1           0        0.000000    2.060723    1.307477
      9          1           0        0.000000   -2.060723    1.307477
     10          1           0        0.000000   -2.155293   -1.183103
     11          1           0        0.000000    2.155293   -1.183103
 ---------------------------------------------------------------------

 SCF Done:  E(RHF) =  -246.693040986     A.U. after   13 cycles

 Alpha  occ. eigenvalues --  -15.56714 -11.27245 -11.27243 -11.25817 -11.24038
 Alpha  occ. eigenvalues --  -11.24034  -1.25013  -1.08448  -1.02871  -0.85382
 Alpha  occ. eigenvalues --   -0.84993  -0.71565  -0.65354  -0.64963  -0.59362
 Alpha  occ. eigenvalues --   -0.57173  -0.53393  -0.51477  -0.41304  -0.37720
 Alpha  occ. eigenvalues --   -0.34289
 Alpha virt. eigenvalues --    0.12155   0.13869   0.23582   0.28504   0.30108
 Alpha virt. eigenvalues --    0.32164   0.32462   0.35191   0.40759   0.46350
 Alpha virt. eigenvalues --    0.49777   0.50489   0.63884   0.65027   0.74413

 Mulliken charges:
               1
     1  N   -0.522020
     2  C   -0.142224
     3  C    0.064687
     4  C    0.064687
     5  C   -0.260114
     6  C   -0.260114
     7  H    0.217656
     8  H    0.206751
     9  H    0.206751
    10  H    0.211970
    11  H    0.211970
 Sum of Mulliken charges =  -0.00000

 Dipole moment (field-independent basis, Debye):
    X=             -0.0000    Y=              0.0000    Z=             -2.3653  Tot=              2.3653
 Quadrupole moment (field-independent basis, Debye-Ang):
   XX=            -38.1006   YY=            -28.8292   ZZ=            -36.1781
   XY=             -0.0000   XZ=             -0.0000   YZ=             -0.0000

 Summary of Natural Population Analysis:

                                     Natural Population
             Natural    ---------------------------------------------
  Atom No    Charge        Core      Valence    Rydberg      Total
 --------------------------------------------------------------------
    N  1   -0.51439      1.99999     5.49060    0.02380     7.51439
    C  2   -0.16995      1.99999     4.14841    0.02154     6.16995
    C  3    0.06884      1.99999     3.90008    0.03109     5.93116
    C  4    0.06884      1.99999     3.90008    0.03109     5.93116
    C  5   -0.30326      1.99999     4.28302    0.02025     6.30326
    C  6   -0.30326      1.99999     4.28302    0.02025     6.30326
    H  7    0.23730      0.00000     0.76219    0.00050     0.76270
    H  8    0.21982      0.00000     0.77933    0.00084     0.78018
    H  9    0.21982      0.00000     0.77933    0.00084     0.78018
    H 10    0.23812      0.00000     0.76128    0.00060     0.76188
    H 11    0.23812      0.00000     0.76128    0.00060     0.76188
 ====================================================================
 * Total *  0.00000     11.99996    29.84864    0.15140    42.00000

 Normal termination of Gaussian 16 at Mon Nov 18 16:41:13 2024.
