 Gaussian 16, Revision C.01,
 Gaussian 16:  ES64L-G16RevC.01  3-Jul-2019

 -----------------------------------------------------------------
 #RHF/6-31G* int=nobasistransform Symmetry=None 5D 7F Pop=NBO7Read
 -----------------------------------------------------------------

 ---------
 mol67-NBO
 ---------
 Symbolic Z-matrix:
 Charge =  0 Multiplicity = 1

                          Input orientation:
 ---------------------------------------------------------------------
 Center     Atomic      Atomic             Coordinates (Angstroms)
 Number     Number       Type             X           Y           Z
 ---------------------------------------------------------------------
      1         17           0       -0.537724   -0.961291    0.000000
      2          7           0        0.000000    0.997037    0.000000
      3          8           0        1.142664    1.170335    0.000000
 ---------------------------------------------------------------------

 SCF Done:  E(RHF) =  -588.668467695     A.U. after   15 cycles

 Alpha  occ. eigenvalues -- -104.81271 -20.78179 -15.88167 -10.55023  -8.01825
 Alpha  occ. eigenvalues --   -8.01510  -8.01494  -1.68114  -1.09641  -0.97700
 Alpha  occ. eigenvalues --   -0.77044  -0.76540  -0.72454  -0.45328  -0.45317
 Alpha  occ. eigenvalues --   -0.42964
 Alpha virt. eigenvalues --    0.02655   0.04340   0.45572   0.56197   0.61426
 Alpha virt. eigenvalues --    0.64287   0.65407   0.82231   0.83642   0.87144
 Alpha virt. eigenvalues --    1.01605   1.03913   1.10824   1.13627   1.16162

 Mulliken charges:
               1
     1  Cl  -0.179094
     2  N    0.301224
     3  O   -0.122131
 Sum of Mulliken charges =  -0.00000

 Dipole moment (field-independent basis, Debye):
    X=              0.8437    Y=              2.2105    Z=             -0.0000  Tot=              2.3660
 Quadrupole moment (field-independent basis, Debye-Ang):
   XX=            -24.2656   YY=            -22.9614   ZZ=            -22.8712
   XY=             -0.0235   XZ=              0.0000   YZ=              0.0000

 Summary of Natural Population Analysis:

                                     Natural Population
             Natural    ---------------------------------------------
  Atom No    Charge        Core      Valence    Rydberg      Total
 --------------------------------------------------------------------
   Cl  1   -0.24404      9.99999     7.23628    0.00776    17.24404
    N  2    0.41872      1.99999     4.51933    0.06196     6.58128
    O  3   -0.17468      1.99999     6.13829    0.03640     8.17468
 ====================================================================
 * Total *  0.00000     13.99998    17.89389    0.10613    32.00000

 Normal termination of Gaussian 16 at Mon Nov 18 16:40:42 2024.
