 Gaussian 16, Revision C.01,
 Gaussian 16:  ES64L-G16RevC.01  3-Jul-2019

 -----------------------------------------------------------------
 #RHF/6-31G* int=nobasistransform Symmetry=None 5D 7F Pop=NBO7Read
 -----------------------------------------------------------------

 ---------
 mol94-NBO
 ---------
 Symbolic Z-matrix:
 Charge =  0 Multiplicity = 1

                          Input orientation:
 ---------------------------------------------------------------------
 Center     Atomic      Atomic             Coordinates (Angstroms)
 Number     Number       Type             X           Y           Z
 ---------------------------------------------------------------------
      1          6           0        0.000000    0.000000    0.341023
      2          1           0        0.000000    0.000000    1.429485
      3          9           0        0.000000    1.258200   -0.128727
      4          9           0        1.089633   -0.629100   -0.128727
      5          9           0       -1.089633   -0.629100   -0.128727
 ---------------------------------------------------------------------

 SCF Done:  E(RHF) =  -336.765722185     A.U. after   10 cycles

 Alpha  occ. eigenvalues --  -26.33804 -26.33804 -26.33804 -11.51068  -1.72267
 Alpha  occ. eigenvalues --   -1.62988  -1.62988  -0.98303  -0.83775  -0.81447
 Alpha  occ. eigenvalues --   -0.81447  -0.70142  -0.70142  -0.65833  -0.65833
 Alpha  occ. eigenvalues --   -0.64303  -0.59190
 Alpha virt. eigenvalues --    0.26011   0.34721   0.34721   0.43919   0.69706
 Alpha virt. eigenvalues --    0.69706   0.70568   0.92286   1.03539   1.35152
 Alpha virt. eigenvalues --    1.35152   1.47239   1.47239   1.48786   1.63348

 Mulliken charges:
               1
     1  C    1.043031
     2  H    0.167855
     3  F   -0.403629
     4  F   -0.403629
     5  F   -0.403629
 Sum of Mulliken charges =  -0.00000

 Dipole moment (field-independent basis, Debye):
    X=              0.0000    Y=             -0.0000    Z=              1.8099  Tot=              1.8099
 Quadrupole moment (field-independent basis, Debye-Ang):
   XX=            -21.9597   YY=            -21.9597   ZZ=            -17.9567
   XY=             -0.0000   XZ=             -0.0000   YZ=              0.0000

 Summary of Natural Population Analysis:

                                     Natural Population
             Natural    ---------------------------------------------
  Atom No    Charge        Core      Valence    Rydberg      Total
 --------------------------------------------------------------------
    C  1    1.13390      1.99999     2.81363    0.05248     4.86610
    H  2    0.15300      0.00000     0.84535    0.00166     0.84700
    F  3   -0.42897      1.99999     7.41860    0.01038     9.42897
    F  4   -0.42897      1.99999     7.41860    0.01038     9.42897
    F  5   -0.42897      1.99999     7.41860    0.01038     9.42897
 ====================================================================
 * Total *  0.00000      7.99998    25.91476    0.08526    34.00000

 Normal termination of Gaussian 16 at Mon Nov 18 16:40:41 2024.
