 Gaussian 16, Revision C.01,
 Gaussian 16:  ES64L-G16RevC.01  3-Jul-2019

 -----------------------------------------------------------------
 #RHF/STO-3G int=nobasistransform Symmetry=None 5D 7F Pop=NBO7Read
 -----------------------------------------------------------------

 ---------
 mol49-NBO
 ---------
 Symbolic Z-matrix:
 Charge =  0 Multiplicity = 1

                          Input orientation:
 ---------------------------------------------------------------------
 Center     Atomic      Atomic             Coordinates (Angstroms)
 Number     Number       Type             X           Y           Z
 ---------------------------------------------------------------------
      1          9           0        0.000000    0.000000   -1.084794
      2         17           0        0.000000    0.000000    0.574302
 ---------------------------------------------------------------------

 SCF Done:  E(RHF) =  -552.531984968     A.U. after    6 cycles

 Alpha  occ. eigenvalues -- -103.77385 -26.07195 -10.45175  -7.89675  -7.88993
 Alpha  occ. eigenvalues --   -7.88993  -1.56021  -0.99726  -0.60748  -0.60748
 Alpha  occ. eigenvalues --   -0.54891  -0.41538  -0.41538
 Alpha virt. eigenvalues --    0.24110

 Mulliken charges:
               1
     1  F   -0.011233
     2  Cl   0.011233
 Sum of Mulliken charges =  -0.00000

 Dipole moment (field-independent basis, Debye):
    X=              0.0000    Y=             -0.0000    Z=             -0.5454  Tot=              0.5454
 Quadrupole moment (field-independent basis, Debye-Ang):
   XX=            -15.5625   YY=            -15.5625   ZZ=            -14.9652
   XY=             -0.0000   XZ=              0.0000   YZ=             -0.0000

 Summary of Natural Population Analysis:

                                     Natural Population
             Natural    ---------------------------------------------
  Atom No    Charge        Core      Valence    Rydberg      Total
 --------------------------------------------------------------------
    F  1   -0.00236      2.00000     7.00236    0.00000     9.00236
   Cl  2    0.00236     10.00000     6.99764    0.00000    16.99764
 ====================================================================
 * Total *  0.00000     12.00000    14.00000    0.00000    26.00000

 Normal termination of Gaussian 16 at Mon Nov 18 15:41:22 2024.
