 Gaussian 16, Revision C.01,
 Gaussian 16:  ES64L-G16RevC.01  3-Jul-2019

 -----------------------------------------------------------------
 #RHF/STO-3G int=nobasistransform Symmetry=None 5D 7F Pop=NBO7Read
 -----------------------------------------------------------------

 ----------
 mol103-NBO
 ----------
 Symbolic Z-matrix:
 Charge =  0 Multiplicity = 1

                          Input orientation:
 ---------------------------------------------------------------------
 Center     Atomic      Atomic             Coordinates (Angstroms)
 Number     Number       Type             X           Y           Z
 ---------------------------------------------------------------------
      1          6           0       -0.931209   -0.083866    0.000000
      2          8           0       -0.711019   -1.278209    0.000000
      3          8           0        0.000000    0.886841    0.000000
      4          1           0       -1.928360    0.374598    0.000000
      5          6           0        1.356899    0.397287    0.000000
      6          1           0        1.980134    1.288164    0.000000
      7          1           0        1.541121   -0.206172    0.889397
      8          1           0        1.541121   -0.206172   -0.889397
 ---------------------------------------------------------------------

 SCF Done:  E(RHF) =  -224.797129946     A.U. after   12 cycles

 Alpha  occ. eigenvalues --  -20.31793 -20.26673 -11.17560 -11.11216  -1.38951
 Alpha  occ. eigenvalues --   -1.28803  -0.93027  -0.75735  -0.66052  -0.61398
 Alpha  occ. eigenvalues --   -0.57102  -0.53613  -0.49157  -0.43388  -0.35414
 Alpha  occ. eigenvalues --   -0.34378
 Alpha virt. eigenvalues --    0.30632   0.53600   0.64816   0.68617   0.69148
 Alpha virt. eigenvalues --    0.71064   0.74500   0.97900

 Mulliken charges:
               1
     1  C    0.262595
     2  O   -0.258653
     3  O   -0.251572
     4  H    0.069208
     5  C   -0.061303
     6  H    0.083445
     7  H    0.078140
     8  H    0.078140
 Sum of Mulliken charges =   0.00000

 Dipole moment (field-independent basis, Debye):
    X=              0.6267    Y=              0.8783    Z=              0.0000  Tot=              1.0789
 Quadrupole moment (field-independent basis, Debye-Ang):
   XX=            -18.8179   YY=            -25.8451   ZZ=            -20.8679
   XY=             -0.8551   XZ=              0.0000   YZ=             -0.0000

 Summary of Natural Population Analysis:

                                     Natural Population
             Natural    ---------------------------------------------
  Atom No    Charge        Core      Valence    Rydberg      Total
 --------------------------------------------------------------------
    C  1    0.35835      1.99999     3.64165    0.00000     5.64165
    O  2   -0.28763      2.00000     6.28763    0.00000     8.28763
    O  3   -0.26191      2.00000     6.26191    0.00000     8.26191
    H  4    0.01524      0.00000     0.98476    0.00000     0.98476
    C  5    0.02889      1.99999     3.97113    0.00000     5.97111
    H  6    0.05263      0.00000     0.94737    0.00000     0.94737
    H  7    0.04721      0.00000     0.95279    0.00000     0.95279
    H  8    0.04721      0.00000     0.95279    0.00000     0.95279
 ====================================================================
 * Total *  0.00000      7.99998    24.00002    0.00000    32.00000

 Normal termination of Gaussian 16 at Mon Nov 18 15:41:29 2024.
