 Gaussian 16, Revision C.01,
 Gaussian 16:  ES64L-G16RevC.01  3-Jul-2019

 -----------------------------------------------------------------
 #RHF/6-31G* int=nobasistransform Symmetry=None 5D 7F Pop=NBO7Read
 -----------------------------------------------------------------

 ---------
 mol91-NBO
 ---------
 Symbolic Z-matrix:
 Charge =  0 Multiplicity = 1

                          Input orientation:
 ---------------------------------------------------------------------
 Center     Atomic      Atomic             Coordinates (Angstroms)
 Number     Number       Type             X           Y           Z
 ---------------------------------------------------------------------
      1          6           0        0.000000    0.000000    0.000000
      2          6           0        0.000000    0.762014    1.265752
      3          6           0        0.000000   -0.762014    1.265752
      4          6           0        0.762014    0.000000   -1.265752
      5          6           0       -0.762014    0.000000   -1.265752
      6          1           0       -0.914023    1.265075    1.568090
      7          1           0        0.914023    1.265075    1.568090
      8          1           0       -0.914023   -1.265075    1.568090
      9          1           0        0.914023   -1.265075    1.568090
     10          1           0        1.265075   -0.914023   -1.568090
     11          1           0        1.265075    0.914023   -1.568090
     12          1           0       -1.265075   -0.914023   -1.568090
     13          1           0       -1.265075    0.914023   -1.568090
 ---------------------------------------------------------------------

 SCF Done:  E(RHF) =  -193.916422204     A.U. after   10 cycles

 Alpha  occ. eigenvalues --  -11.23034 -11.22047 -11.22038 -11.21986 -11.21986
 Alpha  occ. eigenvalues --   -1.17024  -1.05869  -0.82091  -0.82091  -0.73696
 Alpha  occ. eigenvalues --   -0.65063  -0.63474  -0.63474  -0.51853  -0.50291
 Alpha  occ. eigenvalues --   -0.48386  -0.40898  -0.40898  -0.38461
 Alpha virt. eigenvalues --    0.25770   0.25770   0.26145   0.26670   0.30844
 Alpha virt. eigenvalues --    0.30844   0.37169   0.37276   0.37530   0.37530
 Alpha virt. eigenvalues --    0.39372   0.46410   0.46410   0.49774   0.69020

 Mulliken charges:
               1
     1  C    0.053312
     2  C   -0.377834
     3  C   -0.377834
     4  C   -0.377834
     5  C   -0.377834
     6  H    0.182253
     7  H    0.182253
     8  H    0.182253
     9  H    0.182253
    10  H    0.182253
    11  H    0.182253
    12  H    0.182253
    13  H    0.182253
 Sum of Mulliken charges =  -0.00000

 Dipole moment (field-independent basis, Debye):
    X=              0.0000    Y=              0.0000    Z=             -0.0000  Tot=              0.0000
 Quadrupole moment (field-independent basis, Debye-Ang):
   XX=            -30.7816   YY=            -30.7816   ZZ=            -32.8033
   XY=              0.0000   XZ=              0.0000   YZ=              0.0000

 Summary of Natural Population Analysis:

                                     Natural Population
             Natural    ---------------------------------------------
  Atom No    Charge        Core      Valence    Rydberg      Total
 --------------------------------------------------------------------
    C  1   -0.11123      1.99999     4.08588    0.02536     6.11123
    C  2   -0.42413      1.99999     4.40767    0.01646     6.42413
    C  3   -0.42413      1.99999     4.40767    0.01646     6.42413
    C  4   -0.42413      1.99999     4.40767    0.01646     6.42413
    C  5   -0.42413      1.99999     4.40767    0.01646     6.42413
    H  6    0.22597      0.00000     0.77318    0.00085     0.77403
    H  7    0.22597      0.00000     0.77318    0.00085     0.77403
    H  8    0.22597      0.00000     0.77318    0.00085     0.77403
    H  9    0.22597      0.00000     0.77318    0.00085     0.77403
    H 10    0.22597      0.00000     0.77318    0.00085     0.77403
    H 11    0.22597      0.00000     0.77318    0.00085     0.77403
    H 12    0.22597      0.00000     0.77318    0.00085     0.77403
    H 13    0.22597      0.00000     0.77318    0.00085     0.77403
 ====================================================================
 * Total *  0.00000      9.99996    27.90205    0.09800    38.00000

 Normal termination of Gaussian 16 at Mon Nov 18 16:40:44 2024.
