 Gaussian 16, Revision C.01,
 Gaussian 16:  ES64L-G16RevC.01  3-Jul-2019

 -----------------------------------------------------------------
 #RHF/STO-3G int=nobasistransform Symmetry=None 5D 7F Pop=NBO7Read
 -----------------------------------------------------------------

 ---------
 mol09-NBO
 ---------
 Symbolic Z-matrix:
 Charge =  0 Multiplicity = 1

                          Input orientation:
 ---------------------------------------------------------------------
 Center     Atomic      Atomic             Coordinates (Angstroms)
 Number     Number       Type             X           Y           Z
 ---------------------------------------------------------------------
      1          7           0        0.000000    0.000000    0.116489
      2          1           0        0.000000    0.939731   -0.271808
      3          1           0        0.813831   -0.469865   -0.271808
      4          1           0       -0.813831   -0.469865   -0.271808
 ---------------------------------------------------------------------

 SCF Done:  E(RHF) =  -55.4545608968     A.U. after    7 cycles

 Alpha  occ. eigenvalues --  -15.30590  -1.08896  -0.57036  -0.57036  -0.35309
 Alpha virt. eigenvalues --    0.63606   0.72476   0.72476

 Mulliken charges:
               1
     1  N   -0.463871
     2  H    0.154624
     3  H    0.154624
     4  H    0.154624
 Sum of Mulliken charges =  -0.00000

 Dipole moment (field-independent basis, Debye):
    X=             -0.0000    Y=              0.0000    Z=             -1.8002  Tot=              1.8002
 Quadrupole moment (field-independent basis, Debye-Ang):
   XX=             -5.9149   YY=             -5.9149   ZZ=             -7.6746
   XY=              0.0000   XZ=              0.0000   YZ=             -0.0000

 Summary of Natural Population Analysis:

                                     Natural Population
             Natural    ---------------------------------------------
  Atom No    Charge        Core      Valence    Rydberg      Total
 --------------------------------------------------------------------
    N  1   -0.46191      2.00000     5.46191    0.00000     7.46191
    H  2    0.15397      0.00000     0.84603    0.00000     0.84603
    H  3    0.15397      0.00000     0.84603    0.00000     0.84603
    H  4    0.15397      0.00000     0.84603    0.00000     0.84603
 ====================================================================
 * Total *  0.00000      2.00000     8.00000    0.00000    10.00000

 Normal termination of Gaussian 16 at Mon Nov 18 15:41:33 2024.
