 Gaussian 16, Revision C.01,
 Gaussian 16:  ES64L-G16RevC.01  3-Jul-2019

 -----------------------------------------------------------------
 #RHF/STO-3G int=nobasistransform Symmetry=None 5D 7F Pop=NBO7Read
 -----------------------------------------------------------------

 ---------
 mol46-NBO
 ---------
 Symbolic Z-matrix:
 Charge =  0 Multiplicity = 1

                          Input orientation:
 ---------------------------------------------------------------------
 Center     Atomic      Atomic             Coordinates (Angstroms)
 Number     Number       Type             X           Y           Z
 ---------------------------------------------------------------------
      1          6           0        0.000000    0.000000   -1.123382
      2         16           0        0.000000    0.000000    0.421268
 ---------------------------------------------------------------------

 SCF Done:  E(RHF) =  -430.470740145     A.U. after    9 cycles

 Alpha  occ. eigenvalues --  -90.76288 -11.00807  -8.67229  -6.30419  -6.30071
 Alpha  occ. eigenvalues --   -6.30071  -1.00281  -0.57629  -0.34434  -0.34434
 Alpha  occ. eigenvalues --   -0.34076
 Alpha virt. eigenvalues --    0.24897   0.24897   0.69077

 Mulliken charges:
               1
     1  C   -0.108879
     2  S    0.108879
 Sum of Mulliken charges =  -0.00000

 Dipole moment (field-independent basis, Debye):
    X=              0.0000    Y=              0.0000    Z=              0.8887  Tot=              0.8887
 Quadrupole moment (field-independent basis, Debye-Ang):
   XX=            -15.1133   YY=            -15.1133   ZZ=            -19.0242
   XY=             -0.0000   XZ=             -0.0000   YZ=             -0.0000

 Summary of Natural Population Analysis:

                                     Natural Population
             Natural    ---------------------------------------------
  Atom No    Charge        Core      Valence    Rydberg      Total
 --------------------------------------------------------------------
    C  1    0.06045      2.00000     3.93955    0.00000     5.93955
    S  2   -0.06045      9.99989     6.06056    0.00000    16.06045
 ====================================================================
 * Total *  0.00000     11.99989    10.00011    0.00000    22.00000

 Normal termination of Gaussian 16 at Mon Nov 18 15:41:32 2024.
