 Gaussian 16, Revision C.01,
 Gaussian 16:  ES64L-G16RevC.01  3-Jul-2019

 -----------------------------------------------------------------
 #RHF/STO-3G int=nobasistransform Symmetry=None 5D 7F Pop=NBO7Read
 -----------------------------------------------------------------

 ---------
 mol75-NBO
 ---------
 Symbolic Z-matrix:
 Charge =  0 Multiplicity = 1

                          Input orientation:
 ---------------------------------------------------------------------
 Center     Atomic      Atomic             Coordinates (Angstroms)
 Number     Number       Type             X           Y           Z
 ---------------------------------------------------------------------
      1          6           0        0.000000    0.000000   -0.326350
      2          6           0        0.000000    0.000000    1.150830
      3          9           0        0.000000    1.257579   -0.787225
      4          9           0        1.089096   -0.628790   -0.787225
      5          9           0       -1.089096   -0.628790   -0.787225
      6          7           0        0.000000    0.000000    2.329741
 ---------------------------------------------------------------------

 SCF Done:  E(RHF) =  -422.628442085     A.U. after   10 cycles

 Alpha  occ. eigenvalues --  -26.01946 -26.01923 -26.01923 -15.41387 -11.35518
 Alpha  occ. eigenvalues --  -11.09892  -1.65588  -1.55259  -1.55259  -1.19379
 Alpha  occ. eigenvalues --   -0.94793  -0.77523  -0.71149  -0.71149  -0.55975
 Alpha  occ. eigenvalues --   -0.55975  -0.54473  -0.52296  -0.50635  -0.50635
 Alpha  occ. eigenvalues --   -0.47033  -0.44670  -0.44670
 Alpha virt. eigenvalues --    0.28540   0.28540   0.50318   0.60701   0.61056
 Alpha virt. eigenvalues --    0.61057   1.23664

 Mulliken charges:
               1
     1  C    0.485458
     2  C    0.037274
     3  F   -0.133054
     4  F   -0.133054
     5  F   -0.133054
     6  N   -0.123568
 Sum of Mulliken charges =  -0.00000

 Dipole moment (field-independent basis, Debye):
    X=             -0.0000    Y=              0.0000    Z=             -1.3420  Tot=              1.3420
 Quadrupole moment (field-independent basis, Debye-Ang):
   XX=            -27.8154   YY=            -27.8154   ZZ=            -33.8014
   XY=              0.0000   XZ=              0.0000   YZ=             -0.0000

 Summary of Natural Population Analysis:

                                     Natural Population
             Natural    ---------------------------------------------
  Atom No    Charge        Core      Valence    Rydberg      Total
 --------------------------------------------------------------------
    C  1    0.60030      1.99999     3.39971    0.00000     5.39970
    C  2   -0.00744      2.00000     4.00744    0.00000     6.00744
    F  3   -0.16389      2.00000     7.16389    0.00000     9.16389
    F  4   -0.16389      2.00000     7.16389    0.00000     9.16389
    F  5   -0.16389      2.00000     7.16389    0.00000     9.16389
    N  6   -0.10120      2.00000     5.10121    0.00000     7.10120
 ====================================================================
 * Total *  0.00000     11.99998    34.00002    0.00000    46.00000

 Normal termination of Gaussian 16 at Mon Nov 18 15:41:23 2024.
