 Gaussian 16, Revision C.01,
 Gaussian 16:  ES64L-G16RevC.01  3-Jul-2019

 -----------------------------------------------------------------
 #RHF/STO-3G int=nobasistransform Symmetry=None 5D 7F Pop=NBO7Read
 -----------------------------------------------------------------

 ---------
 mol04-NBO
 ---------
 Symbolic Z-matrix:
 Charge =  0 Multiplicity = 1

                          Input orientation:
 ---------------------------------------------------------------------
 Center     Atomic      Atomic             Coordinates (Angstroms)
 Number     Number       Type             X           Y           Z
 ---------------------------------------------------------------------
      1          6           0        0.000000    0.000000    0.174343
      2          1           0        0.000000    0.862232   -0.523029
      3          1           0        0.000000   -0.862232   -0.523029
 ---------------------------------------------------------------------

 SCF Done:  E(RHF) =  -38.3719760988     A.U. after    6 cycles

 Alpha  occ. eigenvalues --  -11.00962  -0.83988  -0.50755  -0.31506
 Alpha virt. eigenvalues --    0.22483   0.67872   0.69457

 Mulliken charges:
               1
     1  C   -0.033489
     2  H    0.016744
     3  H    0.016744
 Sum of Mulliken charges =   0.00000

 Dipole moment (field-independent basis, Debye):
    X=              0.0000    Y=              0.0000    Z=             -1.5657  Tot=              1.5657
 Quadrupole moment (field-independent basis, Debye-Ang):
   XX=             -5.4793   YY=             -6.6561   ZZ=             -7.8480
   XY=             -0.0000   XZ=             -0.0000   YZ=             -0.0000

 Summary of Natural Population Analysis:

                                     Natural Population
             Natural    ---------------------------------------------
  Atom No    Charge        Core      Valence    Rydberg      Total
 --------------------------------------------------------------------
    C  1    0.15421      2.00000     3.84579    0.00000     5.84579
    H  2   -0.07710      0.00000     1.07710    0.00000     1.07710
    H  3   -0.07710      0.00000     1.07710    0.00000     1.07710
 ====================================================================
 * Total *  0.00000      2.00000     6.00000    0.00000     8.00000

 Normal termination of Gaussian 16 at Mon Nov 18 15:41:22 2024.
