 Gaussian 16, Revision C.01,
 Gaussian 16:  ES64L-G16RevC.01  3-Jul-2019

 -----------------------------------------------------------------
 #RHF/6-31G* int=nobasistransform Symmetry=None 5D 7F Pop=NBO7Read
 -----------------------------------------------------------------

 ---------
 mol18-NBO
 ---------
 Symbolic Z-matrix:
 Charge =  0 Multiplicity = 1

                          Input orientation:
 ---------------------------------------------------------------------
 Center     Atomic      Atomic             Coordinates (Angstroms)
 Number     Number       Type             X           Y           Z
 ---------------------------------------------------------------------
      1         15           0        0.000000    0.000000    0.124619
      2          1           0        0.000000    1.200647   -0.623095
      3          1           0        1.039791   -0.600323   -0.623095
      4          1           0       -1.039791   -0.600323   -0.623095
 ---------------------------------------------------------------------

 SCF Done:  E(RHF) =  -342.446354953     A.U. after   10 cycles

 Alpha  occ. eigenvalues --  -79.92653  -7.48602  -5.37913  -5.37913  -5.37743
 Alpha  occ. eigenvalues --   -0.85828  -0.52584  -0.52584  -0.38404
 Alpha virt. eigenvalues --    0.16726   0.16726   0.27242   0.44578   0.44578
 Alpha virt. eigenvalues --    0.45293   0.52777   0.89094   0.89094   0.91019
 Alpha virt. eigenvalues --    0.91019   0.93421   1.20242   1.46064   1.46064

 Mulliken charges:
               1
     1  P    0.037461
     2  H   -0.012487
     3  H   -0.012487
     4  H   -0.012487
 Sum of Mulliken charges =  -0.00000

 Dipole moment (field-independent basis, Debye):
    X=              0.0000    Y=             -0.0000    Z=             -0.8311  Tot=              0.8311
 Quadrupole moment (field-independent basis, Debye-Ang):
   XX=            -14.8249   YY=            -14.8249   ZZ=            -17.5292
   XY=             -0.0000   XZ=              0.0000   YZ=              0.0000

 Summary of Natural Population Analysis:

                                     Natural Population
             Natural    ---------------------------------------------
  Atom No    Charge        Core      Valence    Rydberg      Total
 --------------------------------------------------------------------
    P  1    0.11660      9.99999     4.82157    0.06183    14.88340
    H  2   -0.03887      0.00000     1.03805    0.00082     1.03887
    H  3   -0.03887      0.00000     1.03805    0.00082     1.03887
    H  4   -0.03887      0.00000     1.03805    0.00082     1.03887
 ====================================================================
 * Total *  0.00000      9.99999     7.93572    0.06429    18.00000

 Normal termination of Gaussian 16 at Mon Nov 18 16:40:07 2024.
