 Gaussian 16, Revision C.01,
 Gaussian 16:  ES64L-G16RevC.01  3-Jul-2019

 -----------------------------------------------------------------
 #RHF/6-31G* int=nobasistransform Symmetry=None 5D 7F Pop=NBO7Read
 -----------------------------------------------------------------

 ----------
 mol106-NBO
 ----------
 Symbolic Z-matrix:
 Charge =  0 Multiplicity = 1

                          Input orientation:
 ---------------------------------------------------------------------
 Center     Atomic      Atomic             Coordinates (Angstroms)
 Number     Number       Type             X           Y           Z
 ---------------------------------------------------------------------
      1          7           0        0.000000    0.000000    1.875875
      2          6           0        0.000000    0.000000    0.690573
      3          6           0        0.000000    0.000000   -0.690573
      4          7           0        0.000000    0.000000   -1.875875
 ---------------------------------------------------------------------

 SCF Done:  E(RHF) =  -184.576949220     A.U. after   10 cycles

 Alpha  occ. eigenvalues --  -15.67418 -15.67416 -11.36818 -11.36717  -1.28800
 Alpha  occ. eigenvalues --   -1.26081  -0.98267  -0.63868  -0.62013  -0.58859
 Alpha  occ. eigenvalues --   -0.58859  -0.48373  -0.48373
 Alpha virt. eigenvalues --    0.05214   0.05214   0.27776   0.31680   0.31680
 Alpha virt. eigenvalues --    0.38731   0.52657   0.68080   0.68080   0.78562
 Alpha virt. eigenvalues --    0.80667   0.81573   0.81573   0.85183   1.00497

 Mulliken charges:
               1
     1  N   -0.321830
     2  C    0.321830
     3  C    0.321830
     4  N   -0.321830
 Sum of Mulliken charges =  -0.00000

 Dipole moment (field-independent basis, Debye):
    X=             -0.0000    Y=              0.0000    Z=             -0.0000  Tot=              0.0000
 Quadrupole moment (field-independent basis, Debye-Ang):
   XX=            -21.2117   YY=            -21.2117   ZZ=            -30.5196
   XY=              0.0000   XZ=             -0.0000   YZ=             -0.0000

 Summary of Natural Population Analysis:

                                     Natural Population
             Natural    ---------------------------------------------
  Atom No    Charge        Core      Valence    Rydberg      Total
 --------------------------------------------------------------------
    N  1   -0.21573      1.99999     5.19458    0.02116     7.21573
    C  2    0.21573      1.99999     3.75979    0.02449     5.78427
    C  3    0.21573      1.99999     3.75979    0.02449     5.78427
    N  4   -0.21573      1.99999     5.19458    0.02116     7.21573
 ====================================================================
 * Total *  0.00000      7.99996    17.90874    0.09130    26.00000

 Normal termination of Gaussian 16 at Mon Nov 18 16:40:46 2024.
