 Gaussian 16, Revision C.01,
 Gaussian 16:  ES64L-G16RevC.01  3-Jul-2019

 -----------------------------------------------------------------
 #RHF/6-31G* int=nobasistransform Symmetry=None 5D 7F Pop=NBO7Read
 -----------------------------------------------------------------

 ---------
 mol38-NBO
 ---------
 Symbolic Z-matrix:
 Charge =  0 Multiplicity = 1

                          Input orientation:
 ---------------------------------------------------------------------
 Center     Atomic      Atomic             Coordinates (Angstroms)
 Number     Number       Type             X           Y           Z
 ---------------------------------------------------------------------
      1          6           0        0.000000    0.000000    0.000000
      2          8           0        0.000000    0.000000    1.178658
      3          8           0        0.000000    0.000000   -1.178658
 ---------------------------------------------------------------------

 SCF Done:  E(RHF) =  -187.627799711     A.U. after    9 cycles

 Alpha  occ. eigenvalues --  -20.66402 -20.66398 -11.48062  -1.52183  -1.46724
 Alpha  occ. eigenvalues --   -0.79676  -0.73309  -0.70374  -0.70374  -0.53768
 Alpha  occ. eigenvalues --   -0.53768
 Alpha virt. eigenvalues --    0.20206   0.20206   0.25330   0.51848   0.66823
 Alpha virt. eigenvalues --    0.66823   0.80637   0.96910   1.05270   1.14955
 Alpha virt. eigenvalues --    1.14955   1.32069   1.32069   1.38165   1.64696

 Mulliken charges:
               1
     1  C    0.940944
     2  O   -0.470472
     3  O   -0.470472
 Sum of Mulliken charges =  -0.00000

 Dipole moment (field-independent basis, Debye):
    X=              0.0000    Y=              0.0000    Z=              0.0000  Tot=              0.0000
 Quadrupole moment (field-independent basis, Debye-Ang):
   XX=            -14.6377   YY=            -14.6377   ZZ=            -20.1663
   XY=              0.0000   XZ=              0.0000   YZ=             -0.0000

 Summary of Natural Population Analysis:

                                     Natural Population
             Natural    ---------------------------------------------
  Atom No    Charge        Core      Valence    Rydberg      Total
 --------------------------------------------------------------------
    C  1    1.28196      1.99999     2.67409    0.04396     4.71804
    O  2   -0.64098      1.99999     6.61540    0.02559     8.64098
    O  3   -0.64098      1.99999     6.61540    0.02559     8.64098
 ====================================================================
 * Total *  0.00000      5.99997    15.90489    0.09514    22.00000

 Normal termination of Gaussian 16 at Mon Nov 18 16:40:07 2024.
