 Gaussian 16, Revision C.01,
 Gaussian 16:  ES64L-G16RevC.01  3-Jul-2019

 -----------------------------------------------------------------
 #RHF/6-31G* int=nobasistransform Symmetry=None 5D 7F Pop=NBO7Read
 -----------------------------------------------------------------

 ----------
 mol102-NBO
 ----------
 Symbolic Z-matrix:
 Charge =  0 Multiplicity = 1

                          Input orientation:
 ---------------------------------------------------------------------
 Center     Atomic      Atomic             Coordinates (Angstroms)
 Number     Number       Type             X           Y           Z
 ---------------------------------------------------------------------
      1          8           0       -1.040945   -0.436432    0.000000
      2          6           0        0.000000    0.423949    0.000000
      3          8           0        1.169372    0.103741    0.000000
      4          1           0       -0.649570   -1.335134    0.000000
      5          1           0       -0.377847    1.452967    0.000000
 ---------------------------------------------------------------------

 SCF Done:  E(RHF) =  -188.757237030     A.U. after   13 cycles

 Alpha  occ. eigenvalues --  -20.62982 -20.57220 -11.40098  -1.46919  -1.36908
 Alpha  occ. eigenvalues --   -0.89116  -0.71731  -0.70602  -0.62990  -0.59876
 Alpha  occ. eigenvalues --   -0.48858  -0.46847
 Alpha virt. eigenvalues --    0.17250   0.21792   0.27714   0.42487   0.45818
 Alpha virt. eigenvalues --    0.72059   0.75390   0.90780   0.93143   1.02499
 Alpha virt. eigenvalues --    1.08656   1.13984   1.18250   1.25974   1.28327

 Mulliken charges:
               1
     1  O   -0.716168
     2  C    0.587477
     3  O   -0.544492
     4  H    0.478540
     5  H    0.194643
 Sum of Mulliken charges =   0.00000

 Dipole moment (field-independent basis, Debye):
    X=             -1.5902    Y=             -0.1467    Z=              0.0000  Tot=              1.5970
 Quadrupole moment (field-independent basis, Debye-Ang):
   XX=            -22.6934   YY=            -12.2086   ZZ=            -16.7350
   XY=             -0.2929   XZ=              0.0000   YZ=              0.0000

 Summary of Natural Population Analysis:

                                     Natural Population
             Natural    ---------------------------------------------
  Atom No    Charge        Core      Valence    Rydberg      Total
 --------------------------------------------------------------------
    O  1   -0.79608      1.99999     6.77898    0.01711     8.79608
    C  2    0.82743      1.99999     3.12380    0.04878     5.17257
    O  3   -0.69739      1.99999     6.67480    0.02260     8.69739
    H  4    0.51622      0.00000     0.48129    0.00249     0.48378
    H  5    0.14983      0.00000     0.84780    0.00237     0.85017
 ====================================================================
 * Total *  0.00000      5.99998    17.90666    0.09336    24.00000

 Normal termination of Gaussian 16 at Mon Nov 18 16:40:49 2024.
