 Gaussian 16, Revision C.01,
 Gaussian 16:  ES64L-G16RevC.01  3-Jul-2019

 -----------------------------------------------------------------
 #RHF/STO-3G int=nobasistransform Symmetry=None 5D 7F Pop=NBO7Read
 -----------------------------------------------------------------

 ----------
 mol107-NBO
 ----------
 Symbolic Z-matrix:
 Charge =  0 Multiplicity = 1

                          Input orientation:
 ---------------------------------------------------------------------
 Center     Atomic      Atomic             Coordinates (Angstroms)
 Number     Number       Type             X           Y           Z
 ---------------------------------------------------------------------
      1          6           0       -0.027530   -0.224702    1.204880
      2          7           0       -0.027530    0.592470    0.000000
      3          6           0       -0.027530   -0.224702   -1.204880
      4          1           0        0.791501   -0.962742    1.248506
      5          1           0        0.039598    0.421182    2.083405
      6          1           0       -0.972220   -0.772987    1.261750
      7          1           0        0.805303    1.178220    0.000000
      8          1           0        0.791501   -0.962742   -1.248506
      9          1           0        0.039598    0.421182   -2.083405
     10          1           0       -0.972220   -0.772987   -1.261750
 ---------------------------------------------------------------------

 SCF Done:  E(RHF) =  -132.610472449     A.U. after   10 cycles

 Alpha  occ. eigenvalues --  -15.31763 -11.06676 -11.06659  -1.14968  -0.90612
 Alpha  occ. eigenvalues --   -0.81485  -0.61776  -0.57901  -0.54857  -0.50978
 Alpha  occ. eigenvalues --   -0.46763  -0.46291  -0.30300
 Alpha virt. eigenvalues --    0.61540   0.62429   0.66033   0.70234   0.70258
 Alpha virt. eigenvalues --    0.72717   0.74860   0.78807   0.79857

 Mulliken charges:
               1
     1  C   -0.085975
     2  N   -0.329740
     3  C   -0.085975
     4  H    0.044556
     5  H    0.064705
     6  H    0.064148
     7  H    0.154872
     8  H    0.044556
     9  H    0.064705
    10  H    0.064148
 Sum of Mulliken charges =  -0.00000

 Dipole moment (field-independent basis, Debye):
    X=              1.0876    Y=             -0.6369    Z=              0.0000  Tot=              1.2603
 Quadrupole moment (field-independent basis, Debye-Ang):
   XX=            -19.3254   YY=            -20.0193   ZZ=            -18.7059
   XY=              1.5951   XZ=              0.0000   YZ=              0.0000

 Summary of Natural Population Analysis:

                                     Natural Population
             Natural    ---------------------------------------------
  Atom No    Charge        Core      Valence    Rydberg      Total
 --------------------------------------------------------------------
    C  1   -0.02639      1.99999     4.02640    0.00000     6.02639
    N  2   -0.30935      2.00000     5.30935    0.00000     7.30935
    C  3   -0.02639      1.99999     4.02640    0.00000     6.02639
    H  4    0.02305      0.00000     0.97695    0.00000     0.97695
    H  5    0.04258      0.00000     0.95742    0.00000     0.95742
    H  6    0.04157      0.00000     0.95843    0.00000     0.95843
    H  7    0.14775      0.00000     0.85225    0.00000     0.85225
    H  8    0.02305      0.00000     0.97695    0.00000     0.97695
    H  9    0.04258      0.00000     0.95742    0.00000     0.95742
    H 10    0.04157      0.00000     0.95843    0.00000     0.95843
 ====================================================================
 * Total *  0.00000      5.99998    20.00002    0.00000    26.00000

 Normal termination of Gaussian 16 at Mon Nov 18 15:41:27 2024.
