 Gaussian 16, Revision C.01,
 Gaussian 16:  ES64L-G16RevC.01  3-Jul-2019

 -----------------------------------------------------------------
 #RHF/STO-3G int=nobasistransform Symmetry=None 5D 7F Pop=NBO7Read
 -----------------------------------------------------------------

 ---------
 mol90-NBO
 ---------
 Symbolic Z-matrix:
 Charge =  0 Multiplicity = 1

                          Input orientation:
 ---------------------------------------------------------------------
 Center     Atomic      Atomic             Coordinates (Angstroms)
 Number     Number       Type             X           Y           Z
 ---------------------------------------------------------------------
      1          6           0        0.000000    0.000000    0.376949
      2          1           0        0.000000    0.000000    1.475269
      3          6           0        0.000000    1.450290   -0.096234
      4          1           0        0.000000    1.493997   -1.190847
      5          1           0       -0.885482    1.984695    0.261297
      6          1           0        0.885482    1.984695    0.261297
      7          6           0        1.255988   -0.725145   -0.096234
      8          1           0        1.293839   -0.746998   -1.190847
      9          1           0        2.161537   -0.225498    0.261297
     10          1           0        1.276055   -1.759198    0.261297
     11          6           0       -1.255988   -0.725145   -0.096234
     12          1           0       -1.293839   -0.746998   -1.190847
     13          1           0       -1.276055   -1.759198    0.261297
     14          1           0       -2.161537   -0.225498    0.261297
 ---------------------------------------------------------------------

 SCF Done:  E(RHF) =  -155.465289773     A.U. after    8 cycles

 Alpha  occ. eigenvalues --  -11.04838 -11.03018 -11.03018 -11.03006  -1.04309
 Alpha  occ. eigenvalues --   -0.88941  -0.88941  -0.73253  -0.60149  -0.55951
 Alpha  occ. eigenvalues --   -0.55951  -0.50302  -0.50302  -0.48024  -0.42360
 Alpha  occ. eigenvalues --   -0.42360  -0.42213
 Alpha virt. eigenvalues --    0.59658   0.62314   0.62314   0.69608   0.71157
 Alpha virt. eigenvalues --    0.71157   0.75242   0.76346   0.76628   0.76628
 Alpha virt. eigenvalues --    0.80173   0.80173   0.81923

 Mulliken charges:
               1
     1  C   -0.015238
     2  H    0.048196
     3  C   -0.172231
     4  H    0.052762
     5  H    0.054242
     6  H    0.054242
     7  C   -0.172231
     8  H    0.052762
     9  H    0.054242
    10  H    0.054241
    11  C   -0.172231
    12  H    0.052762
    13  H    0.054241
    14  H    0.054242
 Sum of Mulliken charges =  -0.00000

 Dipole moment (field-independent basis, Debye):
    X=             -0.0000    Y=              0.0000    Z=              0.0304  Tot=              0.0304
 Quadrupole moment (field-independent basis, Debye-Ang):
   XX=            -27.0699   YY=            -27.0699   ZZ=            -26.6004
   XY=              0.0000   XZ=              0.0000   YZ=             -0.0000

 Summary of Natural Population Analysis:

                                     Natural Population
             Natural    ---------------------------------------------
  Atom No    Charge        Core      Valence    Rydberg      Total
 --------------------------------------------------------------------
    C  1    0.02793      2.00000     3.97207    0.00000     5.97207
    H  2    0.02606      0.00000     0.97394    0.00000     0.97394
    C  3   -0.13287      2.00000     4.13287    0.00000     6.13287
    H  4    0.03733      0.00000     0.96267    0.00000     0.96267
    H  5    0.03877      0.00000     0.96123    0.00000     0.96123
    H  6    0.03877      0.00000     0.96123    0.00000     0.96123
    C  7   -0.13287      2.00000     4.13287    0.00000     6.13287
    H  8    0.03733      0.00000     0.96267    0.00000     0.96267
    H  9    0.03877      0.00000     0.96123    0.00000     0.96123
    H 10    0.03877      0.00000     0.96123    0.00000     0.96123
    C 11   -0.13287      2.00000     4.13287    0.00000     6.13287
    H 12    0.03733      0.00000     0.96267    0.00000     0.96267
    H 13    0.03877      0.00000     0.96123    0.00000     0.96123
    H 14    0.03877      0.00000     0.96123    0.00000     0.96123
 ====================================================================
 * Total *  0.00000      7.99999    26.00001    0.00000    34.00000

 Normal termination of Gaussian 16 at Mon Nov 18 15:41:44 2024.
