 Gaussian 16, Revision C.01,
 Gaussian 16:  ES64L-G16RevC.01  3-Jul-2019

 -----------------------------------------------------------------
 #RHF/STO-3G int=nobasistransform Symmetry=None 5D 7F Pop=NBO7Read
 -----------------------------------------------------------------

 ----------
 mol112-NBO
 ----------
 Symbolic Z-matrix:
 Charge =  0 Multiplicity = 1

                          Input orientation:
 ---------------------------------------------------------------------
 Center     Atomic      Atomic             Coordinates (Angstroms)
 Number     Number       Type             X           Y           Z
 ---------------------------------------------------------------------
      1          6           0        0.000000    0.756430    0.000000
      2          6           0        0.000000   -0.756430    0.000000
      3          8           0        1.046090    1.389916    0.000000
      4          1           0       -0.999940    1.228191    0.000000
      5          8           0       -1.046090   -1.389916    0.000000
      6          1           0        0.999940   -1.228191    0.000000
 ---------------------------------------------------------------------

 SCF Done:  E(RHF) =  -223.581455432     A.U. after   10 cycles

 Alpha  occ. eigenvalues --  -20.32592 -20.32591 -11.13905 -11.13875  -1.36017
 Alpha  occ. eigenvalues --   -1.34163  -0.88711  -0.75355  -0.62756  -0.59450
 Alpha  occ. eigenvalues --   -0.53594  -0.50500  -0.42383  -0.40795  -0.33100
 Alpha virt. eigenvalues --    0.19354   0.36201   0.58596   0.68524   0.70819
 Alpha virt. eigenvalues --    0.82328   1.02487

 Mulliken charges:
               1
     1  C    0.114565
     2  C    0.114565
     3  O   -0.182310
     4  H    0.067746
     5  O   -0.182310
     6  H    0.067746
 Sum of Mulliken charges =  -0.00000

 Dipole moment (field-independent basis, Debye):
    X=             -0.0000    Y=             -0.0000    Z=             -0.0000  Tot=              0.0000
 Quadrupole moment (field-independent basis, Debye-Ang):
   XX=            -22.6905   YY=            -23.2770   ZZ=            -19.0941
   XY=             -4.2101   XZ=             -0.0000   YZ=              0.0000

 Summary of Natural Population Analysis:

                                     Natural Population
             Natural    ---------------------------------------------
  Atom No    Charge        Core      Valence    Rydberg      Total
 --------------------------------------------------------------------
    C  1    0.16190      1.99999     3.83810    0.00000     5.83810
    C  2    0.16190      1.99999     3.83810    0.00000     5.83810
    O  3   -0.18496      2.00000     6.18496    0.00000     8.18496
    H  4    0.02305      0.00000     0.97695    0.00000     0.97695
    O  5   -0.18496      2.00000     6.18496    0.00000     8.18496
    H  6    0.02305      0.00000     0.97695    0.00000     0.97695
 ====================================================================
 * Total *  0.00000      7.99999    22.00001    0.00000    30.00000

 Normal termination of Gaussian 16 at Mon Nov 18 15:41:27 2024.
