 Gaussian 16, Revision C.01,
 Gaussian 16:  ES64L-G16RevC.01  3-Jul-2019

 -----------------------------------------------------------------
 #RHF/STO-3G int=nobasistransform Symmetry=None 5D 7F Pop=NBO7Read
 -----------------------------------------------------------------

 ----------
 mol106-NBO
 ----------
 Symbolic Z-matrix:
 Charge =  0 Multiplicity = 1

                          Input orientation:
 ---------------------------------------------------------------------
 Center     Atomic      Atomic             Coordinates (Angstroms)
 Number     Number       Type             X           Y           Z
 ---------------------------------------------------------------------
      1          7           0        0.000000    0.000000    1.875875
      2          6           0        0.000000    0.000000    0.690573
      3          6           0        0.000000    0.000000   -0.690573
      4          7           0        0.000000    0.000000   -1.875875
 ---------------------------------------------------------------------

 SCF Done:  E(RHF) =  -182.215036903     A.U. after    9 cycles

 Alpha  occ. eigenvalues --  -15.44206 -15.44202 -11.14758 -11.14741  -1.22454
 Alpha  occ. eigenvalues --   -1.20159  -0.89277  -0.55256  -0.53624  -0.53624
 Alpha  occ. eigenvalues --   -0.52542  -0.41583  -0.41583
 Alpha virt. eigenvalues --    0.18515   0.18515   0.43730   0.43730   0.48462
 Alpha virt. eigenvalues --    1.01171   1.42569

 Mulliken charges:
               1
     1  N   -0.095594
     2  C    0.095594
     3  C    0.095594
     4  N   -0.095594
 Sum of Mulliken charges =  -0.00000

 Dipole moment (field-independent basis, Debye):
    X=             -0.0000    Y=              0.0000    Z=              0.0000  Tot=              0.0000
 Quadrupole moment (field-independent basis, Debye-Ang):
   XX=            -19.0176   YY=            -19.0176   ZZ=            -28.2434
   XY=              0.0000   XZ=             -0.0000   YZ=              0.0000

 Summary of Natural Population Analysis:

                                     Natural Population
             Natural    ---------------------------------------------
  Atom No    Charge        Core      Valence    Rydberg      Total
 --------------------------------------------------------------------
    N  1   -0.06325      2.00000     5.06326    0.00000     7.06325
    C  2    0.06325      2.00000     3.93675    0.00000     5.93675
    C  3    0.06325      2.00000     3.93675    0.00000     5.93675
    N  4   -0.06325      2.00000     5.06326    0.00000     7.06325
 ====================================================================
 * Total *  0.00000      7.99999    18.00001    0.00000    26.00000

 Normal termination of Gaussian 16 at Mon Nov 18 15:41:29 2024.
