 Gaussian 16, Revision C.01,
 Gaussian 16:  ES64L-G16RevC.01  3-Jul-2019

 -----------------------------------------------------------------
 #RHF/6-31G* int=nobasistransform Symmetry=None 5D 7F Pop=NBO7Read
 -----------------------------------------------------------------

 ----------
 mol100-NBO
 ----------
 Symbolic Z-matrix:
 Charge =  0 Multiplicity = 1

                          Input orientation:
 ---------------------------------------------------------------------
 Center     Atomic      Atomic             Coordinates (Angstroms)
 Number     Number       Type             X           Y           Z
 ---------------------------------------------------------------------
      1          6           0       -1.316208    0.309247    0.000000
      2          8           0        0.000000    0.896852    0.000000
      3          1           0       -1.985538    1.166013    0.000000
      4          1           0       -1.464336   -0.304637    0.890672
      5          1           0       -1.464336   -0.304637   -0.890672
      6          7           0        1.045334   -0.022815    0.000000
      7          8           0        0.686764   -1.178416    0.000000
 ---------------------------------------------------------------------

 SCF Done:  E(RHF) =  -243.657533975     A.U. after   14 cycles

 Alpha  occ. eigenvalues --  -20.65528 -20.64414 -15.79512 -11.29606  -1.57882
 Alpha  occ. eigenvalues --   -1.39786  -1.02349  -0.87605  -0.75412  -0.71743
 Alpha  occ. eigenvalues --   -0.69785  -0.59593  -0.59105  -0.55024  -0.48564
 Alpha  occ. eigenvalues --   -0.45981
 Alpha virt. eigenvalues --    0.09978   0.24894   0.28512   0.30003   0.31137
 Alpha virt. eigenvalues --    0.39864   0.51610   0.74030   0.74539   0.79085
 Alpha virt. eigenvalues --    0.86484   0.89525   0.91177   1.00209   1.07883

 Mulliken charges:
               1
     1  C   -0.181118
     2  O   -0.530742
     3  H    0.201582
     4  H    0.193316
     5  H    0.193316
     6  N    0.493142
     7  O   -0.369495
 Sum of Mulliken charges =  -0.00000

 Dipole moment (field-independent basis, Debye):
    X=             -2.1400    Y=              0.2039    Z=             -0.0000  Tot=              2.1497
 Quadrupole moment (field-independent basis, Debye-Ang):
   XX=            -21.2630   YY=            -26.1225   ZZ=            -22.0737
   XY=             -0.1674   XZ=              0.0000   YZ=              0.0000

 Summary of Natural Population Analysis:

                                     Natural Population
             Natural    ---------------------------------------------
  Atom No    Charge        Core      Valence    Rydberg      Total
 --------------------------------------------------------------------
    C  1   -0.27375      1.99999     4.25264    0.02113     6.27375
    O  2   -0.48885      1.99999     6.47078    0.01808     8.48885
    H  3    0.21975      0.00000     0.77971    0.00053     0.78025
    H  4    0.20937      0.00000     0.78932    0.00131     0.79063
    H  5    0.20937      0.00000     0.78932    0.00131     0.79063
    N  6    0.51406      1.99999     4.43199    0.05395     6.48594
    O  7   -0.38995      1.99999     6.36459    0.02536     8.38995
 ====================================================================
 * Total *  0.00000      7.99997    23.87836    0.12167    32.00000

 Normal termination of Gaussian 16 at Mon Nov 18 16:40:47 2024.
