 Gaussian 16, Revision C.01,
 Gaussian 16:  ES64L-G16RevC.01  3-Jul-2019

 -----------------------------------------------------------------
 #RHF/STO-3G int=nobasistransform Symmetry=None 5D 7F Pop=NBO7Read
 -----------------------------------------------------------------

 ---------
 mol77-NBO
 ---------
 Symbolic Z-matrix:
 Charge =  0 Multiplicity = 1

                          Input orientation:
 ---------------------------------------------------------------------
 Center     Atomic      Atomic             Coordinates (Angstroms)
 Number     Number       Type             X           Y           Z
 ---------------------------------------------------------------------
      1          6           0        0.000000    0.000000    0.000000
      2          6           0        0.000000    0.000000    1.311190
      3          6           0        0.000000    0.000000   -1.311190
      4          1           0        0.000000    0.926778    1.876642
      5          1           0        0.000000   -0.926778    1.876642
      6          1           0        0.926778    0.000000   -1.876642
      7          1           0       -0.926778    0.000000   -1.876642
 ---------------------------------------------------------------------

 SCF Done:  E(RHF) =  -114.419915903     A.U. after    9 cycles

 Alpha  occ. eigenvalues --  -11.02942 -11.02350 -11.02349  -1.00690  -0.89415
 Alpha  occ. eigenvalues --   -0.66021  -0.56188  -0.56188  -0.55873  -0.31696
 Alpha  occ. eigenvalues --   -0.31696
 Alpha virt. eigenvalues --    0.31273   0.31273   0.65190   0.69507   0.78473
 Alpha virt. eigenvalues --    0.82140   0.82140   1.28316

 Mulliken charges:
               1
     1  C    0.028691
     2  C   -0.167178
     3  C   -0.167178
     4  H    0.076416
     5  H    0.076416
     6  H    0.076416
     7  H    0.076416
 Sum of Mulliken charges =  -0.00000

 Dipole moment (field-independent basis, Debye):
    X=              0.0000    Y=              0.0000    Z=             -0.0000  Tot=              0.0000
 Quadrupole moment (field-independent basis, Debye-Ang):
   XX=            -17.5200   YY=            -17.5200   ZZ=            -15.8823
   XY=             -0.0000   XZ=             -0.0000   YZ=              0.0000

 Summary of Natural Population Analysis:

                                     Natural Population
             Natural    ---------------------------------------------
  Atom No    Charge        Core      Valence    Rydberg      Total
 --------------------------------------------------------------------
    C  1    0.11213      2.00000     3.88787    0.00000     5.88787
    C  2   -0.17081      2.00000     4.17082    0.00000     6.17081
    C  3   -0.17081      2.00000     4.17082    0.00000     6.17081
    H  4    0.05738      0.00000     0.94262    0.00000     0.94262
    H  5    0.05738      0.00000     0.94262    0.00000     0.94262
    H  6    0.05738      0.00000     0.94262    0.00000     0.94262
    H  7    0.05738      0.00000     0.94262    0.00000     0.94262
 ====================================================================
 * Total *  0.00000      6.00000    16.00000    0.00000    22.00000

 Normal termination of Gaussian 16 at Mon Nov 18 15:41:26 2024.
