 Gaussian 16, Revision C.01,
 Gaussian 16:  ES64L-G16RevC.01  3-Jul-2019

 -----------------------------------------------------------------
 #RHF/STO-3G int=nobasistransform Symmetry=None 5D 7F Pop=NBO7Read
 -----------------------------------------------------------------

 ---------
 mol73-NBO
 ---------
 Symbolic Z-matrix:
 Charge =  0 Multiplicity = 1

                          Input orientation:
 ---------------------------------------------------------------------
 Center     Atomic      Atomic             Coordinates (Angstroms)
 Number     Number       Type             X           Y           Z
 ---------------------------------------------------------------------
      1          6           0        0.000000    0.000000    0.663230
      2          6           0        0.000000    0.000000   -0.663230
      3          9           0        0.000000    1.112665    1.385652
      4          9           0        0.000000   -1.112665    1.385652
      5          9           0        0.000000    1.112665   -1.385652
      6          9           0        0.000000   -1.112665   -1.385652
 ---------------------------------------------------------------------

 SCF Done:  E(RHF) =  -466.903206031     A.U. after   10 cycles

 Alpha  occ. eigenvalues --  -26.00927 -26.00927 -26.00920 -26.00913 -11.19530
 Alpha  occ. eigenvalues --  -11.19460  -1.60001  -1.58241  -1.53576  -1.52505
 Alpha  occ. eigenvalues --   -0.99742  -0.75195  -0.69944  -0.67831  -0.66513
 Alpha  occ. eigenvalues --   -0.59752  -0.59416  -0.55247  -0.52613  -0.52298
 Alpha  occ. eigenvalues --   -0.50255  -0.50216  -0.46430  -0.27351
 Alpha virt. eigenvalues --    0.30109   0.48131   0.55193   0.61332   0.87200
 Alpha virt. eigenvalues --    0.94701

 Mulliken charges:
               1
     1  C    0.237786
     2  C    0.237786
     3  F   -0.118893
     4  F   -0.118893
     5  F   -0.118893
     6  F   -0.118893
 Sum of Mulliken charges =   0.00000

 Dipole moment (field-independent basis, Debye):
    X=              0.0000    Y=              0.0000    Z=              0.0000  Tot=              0.0000
 Quadrupole moment (field-independent basis, Debye-Ang):
   XX=            -25.3464   YY=            -28.7095   ZZ=            -28.2581
   XY=              0.0000   XZ=              0.0000   YZ=              0.0000

 Summary of Natural Population Analysis:

                                     Natural Population
             Natural    ---------------------------------------------
  Atom No    Charge        Core      Valence    Rydberg      Total
 --------------------------------------------------------------------
    C  1    0.27654      1.99998     3.72347    0.00000     5.72346
    C  2    0.27654      1.99998     3.72347    0.00000     5.72346
    F  3   -0.13827      2.00000     7.13827    0.00000     9.13827
    F  4   -0.13827      2.00000     7.13827    0.00000     9.13827
    F  5   -0.13827      2.00000     7.13827    0.00000     9.13827
    F  6   -0.13827      2.00000     7.13827    0.00000     9.13827
 ====================================================================
 * Total *  0.00000     11.99997    36.00003    0.00000    48.00000

 Normal termination of Gaussian 16 at Mon Nov 18 15:41:37 2024.
