 Gaussian 16, Revision C.01,
 Gaussian 16:  ES64L-G16RevC.01  3-Jul-2019

 -----------------------------------------------------------------
 #RHF/6-31G* int=nobasistransform Symmetry=None 5D 7F Pop=NBO7Read
 -----------------------------------------------------------------

 ----------
 mol115-NBO
 ----------
 Symbolic Z-matrix:
 Charge =  0 Multiplicity = 1

                          Input orientation:
 ---------------------------------------------------------------------
 Center     Atomic      Atomic             Coordinates (Angstroms)
 Number     Number       Type             X           Y           Z
 ---------------------------------------------------------------------
      1          6           0        0.000000   -0.739719   -0.792334
      2         16           0        0.000000    0.000000    0.863474
      3          6           0        0.000000    0.739719   -0.792334
      4          1           0       -0.913940   -1.250142   -1.076894
      5          1           0        0.913940   -1.250142   -1.076894
      6          1           0        0.913940    1.250142   -1.076894
      7          1           0       -0.913940    1.250142   -1.076894
 ---------------------------------------------------------------------

 SCF Done:  E(RHF) =  -475.544577376     A.U. after   11 cycles

 Alpha  occ. eigenvalues --  -91.92600 -11.27352 -11.27277  -8.94191  -6.62399
 Alpha  occ. eigenvalues --   -6.62206  -6.61970  -1.14586  -0.84582  -0.83240
 Alpha  occ. eigenvalues --   -0.67184  -0.61115  -0.54381  -0.44037  -0.42792
 Alpha  occ. eigenvalues --   -0.34393
 Alpha virt. eigenvalues --    0.16213   0.21172   0.25313   0.25998   0.29046
 Alpha virt. eigenvalues --    0.35915   0.38914   0.50791   0.54128   0.57824
 Alpha virt. eigenvalues --    0.60085   0.67012   0.72660   0.77647   0.79175

 Mulliken charges:
               1
     1  C   -0.441405
     2  S   -0.000319
     3  C   -0.441405
     4  H    0.220782
     5  H    0.220782
     6  H    0.220782
     7  H    0.220782
 Sum of Mulliken charges =  -0.00000

 Dipole moment (field-independent basis, Debye):
    X=             -0.0000    Y=             -0.0000    Z=             -2.2932  Tot=              2.2932
 Quadrupole moment (field-independent basis, Debye-Ang):
   XX=            -26.4324   YY=            -24.4539   ZZ=            -26.5508
   XY=              0.0000   XZ=              0.0000   YZ=              0.0000

 Summary of Natural Population Analysis:

                                     Natural Population
             Natural    ---------------------------------------------
  Atom No    Charge        Core      Valence    Rydberg      Total
 --------------------------------------------------------------------
    C  1   -0.53240      1.99999     4.50909    0.02332     6.53240
    S  2    0.08773      9.99998     5.87103    0.04126    15.91227
    C  3   -0.53240      1.99999     4.50909    0.02332     6.53240
    H  4    0.24427      0.00000     0.75419    0.00154     0.75573
    H  5    0.24427      0.00000     0.75419    0.00154     0.75573
    H  6    0.24427      0.00000     0.75419    0.00154     0.75573
    H  7    0.24427      0.00000     0.75419    0.00154     0.75573
 ====================================================================
 * Total *  0.00000     13.99997    17.90596    0.09407    32.00000

 Normal termination of Gaussian 16 at Mon Nov 18 16:41:11 2024.
