 Gaussian 16, Revision C.01,
 Gaussian 16:  ES64L-G16RevC.01  3-Jul-2019

 -----------------------------------------------------------------
 #RHF/STO-3G int=nobasistransform Symmetry=None 5D 7F Pop=NBO7Read
 -----------------------------------------------------------------

 ---------
 mol76-NBO
 ---------
 Symbolic Z-matrix:
 Charge =  0 Multiplicity = 1

                          Input orientation:
 ---------------------------------------------------------------------
 Center     Atomic      Atomic             Coordinates (Angstroms)
 Number     Number       Type             X           Y           Z
 ---------------------------------------------------------------------
      1          6           0        0.000000    0.000000    0.214947
      2          6           0        0.000000    0.000000    1.433130
      3          6           0        0.000000    0.000000   -1.246476
      4          1           0        0.000000    0.000000    2.498887
      5          1           0        0.000000    1.021145   -1.636167
      6          1           0        0.884337   -0.510572   -1.636167
      7          1           0       -0.884337   -0.510572   -1.636167
 ---------------------------------------------------------------------

 SCF Done:  E(RHF) =  -114.442200748     A.U. after    9 cycles

 Alpha  occ. eigenvalues --  -11.07554 -10.99415 -10.97515  -0.99305  -0.89129
 Alpha  occ. eigenvalues --   -0.65916  -0.55572  -0.55572  -0.55509  -0.31807
 Alpha  occ. eigenvalues --   -0.31807
 Alpha virt. eigenvalues --    0.39115   0.39115   0.56565   0.71822   0.71822
 Alpha virt. eigenvalues --    0.71956   0.75556   1.46020

 Mulliken charges:
               1
     1  C   -0.034210
     2  C   -0.133751
     3  C   -0.187246
     4  H    0.101211
     5  H    0.084666
     6  H    0.084666
     7  H    0.084666
 Sum of Mulliken charges =  -0.00000

 Dipole moment (field-independent basis, Debye):
    X=              0.0000    Y=              0.0000    Z=             -0.4859  Tot=              0.4859
 Quadrupole moment (field-independent basis, Debye-Ang):
   XX=            -17.6893   YY=            -17.6893   ZZ=            -14.0503
   XY=             -0.0000   XZ=             -0.0000   YZ=             -0.0000

 Summary of Natural Population Analysis:

                                     Natural Population
             Natural    ---------------------------------------------
  Atom No    Charge        Core      Valence    Rydberg      Total
 --------------------------------------------------------------------
    C  1   -0.00555      2.00000     4.00555    0.00000     6.00555
    C  2   -0.11274      2.00000     4.11275    0.00000     6.11274
    C  3   -0.16647      2.00000     4.16647    0.00000     6.16647
    H  4    0.07069      0.00000     0.92931    0.00000     0.92931
    H  5    0.07136      0.00000     0.92864    0.00000     0.92864
    H  6    0.07136      0.00000     0.92864    0.00000     0.92864
    H  7    0.07136      0.00000     0.92864    0.00000     0.92864
 ====================================================================
 * Total *  0.00000      5.99999    16.00001    0.00000    22.00000

 Normal termination of Gaussian 16 at Mon Nov 18 15:41:31 2024.
