 Gaussian 16, Revision C.01,
 Gaussian 16:  ES64L-G16RevC.01  3-Jul-2019

 -----------------------------------------------------------------
 #RHF/6-31G* int=nobasistransform Symmetry=None 5D 7F Pop=NBO7Read
 -----------------------------------------------------------------

 ---------
 mol83-NBO
 ---------
 Symbolic Z-matrix:
 Charge =  0 Multiplicity = 1

                          Input orientation:
 ---------------------------------------------------------------------
 Center     Atomic      Atomic             Coordinates (Angstroms)
 Number     Number       Type             X           Y           Z
 ---------------------------------------------------------------------
      1          6           0        0.000000    0.000000    2.071955
      2          6           0        0.000000    0.000000    0.609970
      3          6           0        0.000000    0.000000   -0.609970
      4          6           0        0.000000    0.000000   -2.071955
      5          1           0        0.000000    1.020696    2.464562
      6          1           0       -0.883949   -0.510348    2.464562
      7          1           0        0.883949   -0.510348    2.464562
      8          1           0        0.000000    1.020696   -2.464562
      9          1           0        0.883949   -0.510348   -2.464562
     10          1           0       -0.883949   -0.510348   -2.464562
 ---------------------------------------------------------------------

 SCF Done:  E(RHF) =  -154.905975903     A.U. after   10 cycles

 Alpha  occ. eigenvalues --  -11.23888 -11.23888 -11.21963 -11.21633  -1.05432
 Alpha  occ. eigenvalues --   -0.99912  -0.90638  -0.65094  -0.59093  -0.58720
 Alpha  occ. eigenvalues --   -0.58720  -0.57150  -0.57150  -0.35253  -0.35253
 Alpha virt. eigenvalues --    0.22178   0.22178   0.25684   0.25784   0.32017
 Alpha virt. eigenvalues --    0.32017   0.37451   0.37451   0.38420   0.43881
 Alpha virt. eigenvalues --    0.58518   0.64027   0.74148   0.74148   0.82460

 Mulliken charges:
               1
     1  C   -0.531749
     2  C   -0.065594
     3  C   -0.065594
     4  C   -0.531749
     5  H    0.199114
     6  H    0.199114
     7  H    0.199114
     8  H    0.199114
     9  H    0.199114
    10  H    0.199114
 Sum of Mulliken charges =  -0.00000

 Dipole moment (field-independent basis, Debye):
    X=             -0.0000    Y=              0.0000    Z=              0.0000  Tot=              0.0000
 Quadrupole moment (field-independent basis, Debye-Ang):
   XX=            -25.7874   YY=            -25.7874   ZZ=            -18.9015
   XY=             -0.0000   XZ=             -0.0000   YZ=              0.0000

 Summary of Natural Population Analysis:

                                     Natural Population
             Natural    ---------------------------------------------
  Atom No    Charge        Core      Valence    Rydberg      Total
 --------------------------------------------------------------------
    C  1   -0.69006      1.99999     4.67729    0.01277     6.69006
    C  2   -0.03906      1.99999     4.02662    0.01245     6.03906
    C  3   -0.03906      1.99999     4.02662    0.01245     6.03906
    C  4   -0.69006      1.99999     4.67729    0.01277     6.69006
    H  5    0.24304      0.00000     0.75589    0.00108     0.75696
    H  6    0.24304      0.00000     0.75589    0.00108     0.75696
    H  7    0.24304      0.00000     0.75589    0.00108     0.75696
    H  8    0.24304      0.00000     0.75589    0.00108     0.75696
    H  9    0.24304      0.00000     0.75589    0.00108     0.75696
    H 10    0.24304      0.00000     0.75589    0.00108     0.75696
 ====================================================================
 * Total *  0.00000      7.99997    21.94315    0.05688    30.00000

 Normal termination of Gaussian 16 at Mon Nov 18 16:40:42 2024.
