 Gaussian 16, Revision C.01,
 Gaussian 16:  ES64L-G16RevC.01  3-Jul-2019

 -----------------------------------------------------------------
 #RHF/6-31G* int=nobasistransform Symmetry=None 5D 7F Pop=NBO7Read
 -----------------------------------------------------------------

 ----------
 mol129-NBO
 ----------
 Symbolic Z-matrix:
 Charge =  0 Multiplicity = 1

                          Input orientation:
 ---------------------------------------------------------------------
 Center     Atomic      Atomic             Coordinates (Angstroms)
 Number     Number       Type             X           Y           Z
 ---------------------------------------------------------------------
      1          8           0        0.006429   -0.712741    0.000000
      2          6           0        0.000000    0.705845    0.000000
      3          6           0        1.324518   -1.226029    0.000000
      4          6           0       -1.442169    1.160325    0.000000
      5          1           0        0.530962    1.086484    0.886881
      6          1           0        0.530962    1.086484   -0.886881
      7          1           0        1.241648   -2.313325    0.000000
      8          1           0        1.881329   -0.905925   -0.891710
      9          1           0        1.881329   -0.905925    0.891710
     10          1           0       -1.954863    0.780605   -0.885855
     11          1           0       -1.954863    0.780605    0.885855
     12          1           0       -1.502025    2.252083    0.000000
 ---------------------------------------------------------------------

 SCF Done:  E(RHF) =  -193.102119472     A.U. after   11 cycles

 Alpha  occ. eigenvalues --  -20.55326 -11.27008 -11.26547 -11.20861  -1.36621
 Alpha  occ. eigenvalues --   -1.02275  -0.91169  -0.82877  -0.66515  -0.64937
 Alpha  occ. eigenvalues --   -0.62203  -0.58035  -0.53367  -0.50334  -0.50019
 Alpha  occ. eigenvalues --   -0.47382  -0.41676
 Alpha virt. eigenvalues --    0.23534   0.26423   0.30095   0.30605   0.31455
 Alpha virt. eigenvalues --    0.33255   0.34070   0.34454   0.35456   0.42397
 Alpha virt. eigenvalues --    0.43898   0.70589   0.75382   0.75418   0.78112

 Mulliken charges:
               1
     1  O   -0.646787
     2  C    0.037164
     3  C   -0.150113
     4  C   -0.503383
     5  H    0.140358
     6  H    0.140358
     7  H    0.177551
     8  H    0.144816
     9  H    0.144816
    10  H    0.178521
    11  H    0.178521
    12  H    0.158179
 Sum of Mulliken charges =  -0.00000

 Dipole moment (field-independent basis, Debye):
    X=              1.1964    Y=              0.8355    Z=             -0.0000  Tot=              1.4593
 Quadrupole moment (field-independent basis, Debye-Ang):
   XX=            -25.3668   YY=            -25.7289   ZZ=            -26.6544
   XY=             -1.8636   XZ=             -0.0000   YZ=             -0.0000

 Summary of Natural Population Analysis:

                                     Natural Population
             Natural    ---------------------------------------------
  Atom No    Charge        Core      Valence    Rydberg      Total
 --------------------------------------------------------------------
    O  1   -0.65386      1.99999     6.63554    0.01833     8.65386
    C  2   -0.03388      1.99999     4.01325    0.02064     6.03388
    C  3   -0.23043      1.99999     4.21089    0.01955     6.23043
    C  4   -0.65749      1.99999     4.64366    0.01384     6.65749
    H  5    0.17939      0.00000     0.81845    0.00216     0.82061
    H  6    0.17939      0.00000     0.81845    0.00216     0.82061
    H  7    0.20420      0.00000     0.79515    0.00065     0.79580
    H  8    0.17499      0.00000     0.82339    0.00162     0.82501
    H  9    0.17499      0.00000     0.82339    0.00162     0.82501
    H 10    0.22370      0.00000     0.77491    0.00138     0.77630
    H 11    0.22370      0.00000     0.77491    0.00138     0.77630
    H 12    0.21531      0.00000     0.78386    0.00083     0.78469
 ====================================================================
 * Total *  0.00000      7.99997    25.91587    0.08416    34.00000

 Normal termination of Gaussian 16 at Mon Nov 18 16:41:12 2024.
