 Gaussian 16, Revision C.01,
 Gaussian 16:  ES64L-G16RevC.01  3-Jul-2019

 ------------------------------
 #RHF/6-31G* 5D 7F Pop=NBO7Read
 ------------------------------

 -----
 NBO-a
 -----
 Symbolic Z-matrix:
 Charge =  0 Multiplicity = 1

                         Standard orientation:
 ---------------------------------------------------------------------
 Center     Atomic      Atomic             Coordinates (Angstroms)
 Number     Number       Type             X           Y           Z
 ---------------------------------------------------------------------
      1          4           0        0.000000    0.000000    0.731519
      2          3           0        0.000000    0.000000   -1.652391
      3          1           0        0.000000    0.000000    2.031099
 ---------------------------------------------------------------------

 SCF Done:  E(RHF) =  -22.6073638050     A.U. after   10 cycles

 The electronic state is 1-SG.
 Alpha  occ. eigenvalues --   -4.62723  -2.43989  -0.43313  -0.23818
 Alpha virt. eigenvalues --    0.02003   0.04454   0.04454   0.13014   0.14518
 Alpha virt. eigenvalues --    0.14518   0.19749   0.22285   0.22285   0.28497
 Alpha virt. eigenvalues --    0.44405   0.52590   0.53081   0.53081   0.58018

 Mulliken charges:
               1
     1  Be   0.248856
     2  Li  -0.126182
     3  H   -0.122674
 Sum of Mulliken charges =   0.00000

 Dipole moment (field-independent basis, Debye):
    X=              0.0000    Y=              0.0000    Z=             -4.8391  Tot=              4.8391
 Quadrupole moment (field-independent basis, Debye-Ang):
   XX=            -12.4791   YY=            -12.4791   ZZ=             -5.8944
   XY=              0.0000   XZ=              0.0000   YZ=              0.0000

 Summary of Natural Population Analysis:

                                     Natural Population
             Natural    ---------------------------------------------
  Atom No    Charge        Core      Valence    Rydberg      Total
 --------------------------------------------------------------------
   Be  1    0.54155      2.00000     1.27642    0.18204     3.45845
   Li  2    0.19120      1.99996     0.72968    0.07916     2.80880
    H  3   -0.73275      0.00000     1.71514    0.01761     1.73275
 ====================================================================
 * Total *  0.00000      3.99996     3.72123    0.27881     8.00000

 Normal termination of Gaussian 16 at Mon Aug 19 13:27:43 2024.
