 Gaussian 16, Revision C.01,
 Gaussian 16:  ES64L-G16RevC.01  3-Jul-2019

 ------------------------
 #RHF/6-31G* Pop=NBO7Read
 ------------------------

 -----
 NBO-a
 -----
 Symbolic Z-matrix:
 Charge =  0 Multiplicity = 1

                          Input orientation:
 ---------------------------------------------------------------------
 Center     Atomic      Atomic             Coordinates (Angstroms)
 Number     Number       Type             X           Y           Z
 ---------------------------------------------------------------------
      1          6           0        0.000001    0.000000    0.000000
      2          1           0       -0.000002    0.000000    1.083010
      3          1           0        1.021073    0.000000   -0.361001
      4          1           0       -0.510534    0.884274   -0.361005
      5          1           0       -0.510534   -0.884274   -0.361005
 ---------------------------------------------------------------------

 SCF Done:  E(RHF) =  -40.1951707491     A.U. after    8 cycles

 Alpha  occ. eigenvalues --  -11.20465  -0.94484  -0.54634  -0.54634  -0.54634
 Alpha virt. eigenvalues --    0.25720   0.32799   0.32799   0.32799   0.72797
 Alpha virt. eigenvalues --    0.72797   0.72797   1.18497   1.18497   1.18497
 Alpha virt. eigenvalues --    1.25271   1.31516   1.94076   1.94076   2.59277

 Mulliken charges:
               1
     1  C   -0.660666
     2  H    0.165166
     3  H    0.165167
     4  H    0.165166
     5  H    0.165166
 Sum of Mulliken charges =   0.00000

 Dipole moment (field-independent basis, Debye):
    X=              0.0000    Y=             -0.0000    Z=             -0.0000  Tot=              0.0000
 Quadrupole moment (field-independent basis, Debye-Ang):
   XX=             -8.3692   YY=             -8.3692   ZZ=             -8.3692
   XY=              0.0000   XZ=             -0.0000   YZ=              0.0000

 Summary of Natural Population Analysis:

                                     Natural Population
             Natural    ---------------------------------------------
  Atom No    Charge        Core      Valence    Rydberg      Total
 --------------------------------------------------------------------
    C  1   -0.86901      2.00000     4.86116    0.00785     6.86901
    H  2    0.21725      0.00000     0.78246    0.00028     0.78275
    H  3    0.21725      0.00000     0.78246    0.00028     0.78275
    H  4    0.21725      0.00000     0.78246    0.00028     0.78275
    H  5    0.21725      0.00000     0.78246    0.00028     0.78275
 ====================================================================
 * Total *  0.00000      2.00000     7.99101    0.00899    10.00000

 Normal termination of Gaussian 16 at Wed Jul 24 12:08:03 2024.
