 Gaussian 16, Revision C.01,
 Gaussian 16:  ES64L-G16RevC.01  3-Jul-2019

 -----------------------------------------------------------------
 #RHF/6-31G* int=nobasistransform Symmetry=None 5D 7F Pop=NBO7Read
 -----------------------------------------------------------------

 ---------
 mol32-NBO
 ---------
 Symbolic Z-matrix:
 Charge =  0 Multiplicity = 1

                          Input orientation:
 ---------------------------------------------------------------------
 Center     Atomic      Atomic             Coordinates (Angstroms)
 Number     Number       Type             X           Y           Z
 ---------------------------------------------------------------------
      1          7           0        0.000000    0.000000    0.564990
      2          7           0        0.000000    0.000000   -0.564990
 ---------------------------------------------------------------------

 SCF Done:  E(RHF) =  -108.934541159     A.U. after    8 cycles

 Alpha  occ. eigenvalues --  -15.70497 -15.70221  -1.44984  -0.78607  -0.62665
 Alpha  occ. eigenvalues --   -0.59806  -0.59806
 Alpha virt. eigenvalues --    0.15422   0.15422   0.57557   0.80055   0.84548
 Alpha virt. eigenvalues --    0.84548   0.93551   1.00825   1.00825   1.07202
 Alpha virt. eigenvalues --    1.50521   1.72826   1.72826   1.82255   1.82255

 Mulliken charges:
               1
     1  N    0.000000
     2  N   -0.000000
 Sum of Mulliken charges =   0.00000

 Dipole moment (field-independent basis, Debye):
    X=             -0.0000    Y=             -0.0000    Z=              0.0000  Tot=              0.0000
 Quadrupole moment (field-independent basis, Debye-Ang):
   XX=            -10.3473   YY=            -10.3473   ZZ=            -11.7273
   XY=             -0.0000   XZ=              0.0000   YZ=             -0.0000

 Summary of Natural Population Analysis:

                                     Natural Population
             Natural    ---------------------------------------------
  Atom No    Charge        Core      Valence    Rydberg      Total
 --------------------------------------------------------------------
    N  1    0.00000      1.99999     4.95467    0.04533     7.00000
    N  2    0.00000      1.99999     4.95467    0.04533     7.00000
 ====================================================================
 * Total *  0.00000      3.99999     9.90935    0.09067    14.00000

 Normal termination of Gaussian 16 at Mon Nov 18 16:40:06 2024.
