 Gaussian 16, Revision C.01,
 Gaussian 16:  ES64L-G16RevC.01  3-Jul-2019

 -----------------------------------------------------------------
 #RHF/STO-3G int=nobasistransform Symmetry=None 5D 7F Pop=NBO7Read
 -----------------------------------------------------------------

 ---------
 mol30-NBO
 ---------
 Symbolic Z-matrix:
 Charge =  0 Multiplicity = 1

                          Input orientation:
 ---------------------------------------------------------------------
 Center     Atomic      Atomic             Coordinates (Angstroms)
 Number     Number       Type             X           Y           Z
 ---------------------------------------------------------------------
      1          8           0        0.000000    0.000000    0.683501
      2          6           0        0.000000    0.000000   -0.536614
      3          1           0        0.000000    0.934390   -1.124164
      4          1           0        0.000000   -0.934390   -1.124164
 ---------------------------------------------------------------------

 SCF Done:  E(RHF) =  -112.354268130     A.U. after    9 cycles

 Alpha  occ. eigenvalues --  -20.31108 -11.12404  -1.33476  -0.80606  -0.63248
 Alpha  occ. eigenvalues --   -0.54336  -0.44082  -0.35430
 Alpha virt. eigenvalues --    0.28125   0.62331   0.73559   0.90693

 Mulliken charges:
               1
     1  O   -0.187658
     2  C    0.073535
     3  H    0.057061
     4  H    0.057061
 Sum of Mulliken charges =  -0.00000

 Dipole moment (field-independent basis, Debye):
    X=             -0.0000    Y=             -0.0000    Z=             -1.5406  Tot=              1.5406
 Quadrupole moment (field-independent basis, Debye-Ang):
   XX=            -10.4296   YY=            -10.5172   ZZ=            -11.3180
   XY=             -0.0000   XZ=             -0.0000   YZ=              0.0000

 Summary of Natural Population Analysis:

                                     Natural Population
             Natural    ---------------------------------------------
  Atom No    Charge        Core      Valence    Rydberg      Total
 --------------------------------------------------------------------
    O  1   -0.19018      2.00000     6.19018    0.00000     8.19018
    C  2    0.16443      1.99999     3.83558    0.00000     5.83557
    H  3    0.01288      0.00000     0.98712    0.00000     0.98712
    H  4    0.01288      0.00000     0.98712    0.00000     0.98712
 ====================================================================
 * Total *  0.00000      3.99999    12.00001    0.00000    16.00000

 Normal termination of Gaussian 16 at Mon Nov 18 15:41:21 2024.
