 Gaussian 16, Revision C.01,
 Gaussian 16:  ES64L-G16RevC.01  3-Jul-2019

 -----------------------------------------------------------------
 #RHF/6-31G* int=nobasistransform Symmetry=None 5D 7F Pop=NBO7Read
 -----------------------------------------------------------------

 ---------
 mol96-NBO
 ---------
 Symbolic Z-matrix:
 Charge =  0 Multiplicity = 1

                          Input orientation:
 ---------------------------------------------------------------------
 Center     Atomic      Atomic             Coordinates (Angstroms)
 Number     Number       Type             X           Y           Z
 ---------------------------------------------------------------------
      1          6           0        0.000000    0.000000    0.451679
      2          1           0        0.000000    0.000000    1.537586
      3         17           0        0.000000    1.681723   -0.083287
      4         17           0        1.456415   -0.840862   -0.083287
      5         17           0       -1.456415   -0.840862   -0.083287
 ---------------------------------------------------------------------

 SCF Done:  E(RHF) =  -1416.86436127     A.U. after   11 cycles

 Alpha  occ. eigenvalues -- -104.84920-104.84920-104.84918 -11.43107 -10.58910
 Alpha  occ. eigenvalues --  -10.58910 -10.58907  -8.05768  -8.05767  -8.05767
 Alpha  occ. eigenvalues --   -8.05385  -8.05385  -8.05385  -8.05380  -8.05380
 Alpha  occ. eigenvalues --   -8.05379  -1.25102  -1.11972  -1.11972  -0.87881
 Alpha  occ. eigenvalues --   -0.68776  -0.63122  -0.63122  -0.50518  -0.50518
 Alpha  occ. eigenvalues --   -0.47085  -0.47085  -0.46707  -0.45371
 Alpha virt. eigenvalues --    0.11972   0.18215   0.18215   0.22359   0.46832
 Alpha virt. eigenvalues --    0.54214   0.54214   0.58561   0.58561   0.59681
 Alpha virt. eigenvalues --    0.61981   0.63773   0.63773   0.68665   0.68665

 Mulliken charges:
               1
     1  C   -0.412660
     2  H    0.301194
     3  Cl   0.037155
     4  Cl   0.037155
     5  Cl   0.037155
 Sum of Mulliken charges =  -0.00000

 Dipole moment (field-independent basis, Debye):
    X=              0.0000    Y=              0.0000    Z=              1.3593  Tot=              1.3593
 Quadrupole moment (field-independent basis, Debye-Ang):
   XX=            -45.1516   YY=            -45.1516   ZZ=            -42.3137
   XY=             -0.0000   XZ=              0.0000   YZ=              0.0000

 Summary of Natural Population Analysis:

                                     Natural Population
             Natural    ---------------------------------------------
  Atom No    Charge        Core      Valence    Rydberg      Total
 --------------------------------------------------------------------
    C  1   -0.30096      1.99999     4.26395    0.03702     6.30096
    H  2    0.27730      0.00000     0.71882    0.00388     0.72270
   Cl  3    0.00789      9.99999     6.96426    0.02786    16.99211
   Cl  4    0.00789      9.99999     6.96426    0.02786    16.99211
   Cl  5    0.00789      9.99999     6.96426    0.02786    16.99211
 ====================================================================
 * Total *  0.00000     31.99996    25.87556    0.12448    58.00000

 Normal termination of Gaussian 16 at Mon Nov 18 16:40:43 2024.
