 Gaussian 16, Revision C.01,
 Gaussian 16:  ES64L-G16RevC.01  3-Jul-2019

 -----------------------------------------------------------------
 #RHF/STO-3G int=nobasistransform Symmetry=None 5D 7F Pop=NBO7Read
 -----------------------------------------------------------------

 ---------
 mol69-NBO
 ---------
 Symbolic Z-matrix:
 Charge =  0 Multiplicity = 1

                          Input orientation:
 ---------------------------------------------------------------------
 Center     Atomic      Atomic             Coordinates (Angstroms)
 Number     Number       Type             X           Y           Z
 ---------------------------------------------------------------------
      1         15           0        0.000000    0.000000    0.506767
      2          9           0        0.000000    1.383861   -0.281537
      3          9           0        1.198459   -0.691931   -0.281537
      4          9           0       -1.198459   -0.691931   -0.281537
 ---------------------------------------------------------------------

 SCF Done:  E(RHF) =  -631.024674135     A.U. after   10 cycles

 Alpha  occ. eigenvalues --  -79.10875 -25.87566 -25.87531 -25.87531  -7.41082
 Alpha  occ. eigenvalues --   -5.23403  -5.23403  -5.23082  -1.53242  -1.46972
 Alpha  occ. eigenvalues --   -1.46972  -0.75049  -0.56974  -0.56974  -0.56044
 Alpha  occ. eigenvalues --   -0.48132  -0.48132  -0.45986  -0.43865  -0.43865
 Alpha  occ. eigenvalues --   -0.30842
 Alpha virt. eigenvalues --    0.42332   0.42332   0.54663

 Mulliken charges:
               1
     1  P    0.915705
     2  F   -0.305235
     3  F   -0.305235
     4  F   -0.305235
 Sum of Mulliken charges =  -0.00000

 Dipole moment (field-independent basis, Debye):
    X=              0.0000    Y=              0.0000    Z=              1.2526  Tot=              1.2526
 Quadrupole moment (field-independent basis, Debye-Ang):
   XX=            -24.8088   YY=            -24.8088   ZZ=            -23.1653
   XY=             -0.0000   XZ=             -0.0000   YZ=             -0.0000

 Summary of Natural Population Analysis:

                                     Natural Population
             Natural    ---------------------------------------------
  Atom No    Charge        Core      Valence    Rydberg      Total
 --------------------------------------------------------------------
    P  1    1.00913      9.99999     3.99088    0.00000    13.99087
    F  2   -0.33638      2.00000     7.33638    0.00000     9.33638
    F  3   -0.33638      2.00000     7.33638    0.00000     9.33638
    F  4   -0.33638      2.00000     7.33638    0.00000     9.33638
 ====================================================================
 * Total *  0.00000     15.99999    26.00001    0.00000    42.00000

 Normal termination of Gaussian 16 at Mon Nov 18 15:41:34 2024.
