 Gaussian 16, Revision C.01,
 Gaussian 16:  ES64L-G16RevC.01  3-Jul-2019

 -----------------------------------------------------------------
 #RHF/STO-3G int=nobasistransform Symmetry=None 5D 7F Pop=NBO7Read
 -----------------------------------------------------------------

 ----------
 mol125-NBO
 ----------
 Symbolic Z-matrix:
 Charge =  0 Multiplicity = 1

                          Input orientation:
 ---------------------------------------------------------------------
 Center     Atomic      Atomic             Coordinates (Angstroms)
 Number     Number       Type             X           Y           Z
 ---------------------------------------------------------------------
      1          6           0        0.000000    0.186396    0.000000
      2          8           0        0.126651    1.377199    0.000000
      3          9           0       -1.243950   -0.382745    0.000000
      4          6           0        1.049454   -0.876224    0.000000
      5          1           0        2.035883   -0.417099    0.000000
      6          1           0        0.924869   -1.508407    0.881549
      7          1           0        0.924869   -1.508407   -0.881549
 ---------------------------------------------------------------------

 SCF Done:  E(RHF) =  -248.421259199     A.U. after   12 cycles

 Alpha  occ. eigenvalues --  -25.95279 -20.29729 -11.20044 -11.07739  -1.52462
 Alpha  occ. eigenvalues --   -1.34589  -0.98715  -0.72246  -0.62987  -0.60999
 Alpha  occ. eigenvalues --   -0.60229  -0.52663  -0.52103  -0.45567  -0.39811
 Alpha  occ. eigenvalues --   -0.36522
 Alpha virt. eigenvalues --    0.29029   0.57456   0.63894   0.68808   0.69891
 Alpha virt. eigenvalues --    0.74964   1.00464

 Mulliken charges:
               1
     1  C    0.344635
     2  O   -0.238303
     3  F   -0.154330
     4  C   -0.217023
     5  H    0.088789
     6  H    0.088116
     7  H    0.088116
 Sum of Mulliken charges =   0.00000

 Dipole moment (field-independent basis, Debye):
    X=              1.0606    Y=             -1.6764    Z=             -0.0000  Tot=              1.9837
 Quadrupole moment (field-independent basis, Debye-Ang):
   XX=            -21.0686   YY=            -22.9174   ZZ=            -19.2596
   XY=             -0.9845   XZ=             -0.0000   YZ=              0.0000

 Summary of Natural Population Analysis:

                                     Natural Population
             Natural    ---------------------------------------------
  Atom No    Charge        Core      Valence    Rydberg      Total
 --------------------------------------------------------------------
    C  1    0.45159      2.00000     3.54841    0.00000     5.54841
    O  2   -0.27051      2.00000     6.27051    0.00000     8.27051
    F  3   -0.18116      2.00000     7.18116    0.00000     9.18116
    C  4   -0.22402      2.00000     4.22402    0.00000     6.22402
    H  5    0.07407      0.00000     0.92593    0.00000     0.92593
    H  6    0.07501      0.00000     0.92499    0.00000     0.92499
    H  7    0.07501      0.00000     0.92499    0.00000     0.92499
 ====================================================================
 * Total *  0.00000      7.99999    24.00001    0.00000    32.00000

 Normal termination of Gaussian 16 at Mon Nov 18 15:41:48 2024.
