 Gaussian 16, Revision C.01,
 Gaussian 16:  ES64L-G16RevC.01  3-Jul-2019

 -----------------------------------------------------------------
 #RHF/STO-3G int=nobasistransform Symmetry=None 5D 7F Pop=NBO7Read
 -----------------------------------------------------------------

 ---------
 mol53-NBO
 ---------
 Symbolic Z-matrix:
 Charge =  0 Multiplicity = 1

                          Input orientation:
 ---------------------------------------------------------------------
 Center     Atomic      Atomic             Coordinates (Angstroms)
 Number     Number       Type             X           Y           Z
 ---------------------------------------------------------------------
      1          8           0        0.036702    1.113517    0.000000
      2          1           0       -0.917548    1.328879    0.000000
      3         17           0        0.036702   -0.602177    0.000000
 ---------------------------------------------------------------------

 SCF Done:  E(RHF) =  -528.930142886     A.U. after   10 cycles

 Alpha  occ. eigenvalues -- -103.73094 -20.38459 -10.41216  -7.85680  -7.85060
 Alpha  occ. eigenvalues --   -7.85039  -1.35143  -0.96911  -0.63258  -0.53089
 Alpha  occ. eigenvalues --   -0.49603  -0.39846  -0.37710
 Alpha virt. eigenvalues --    0.26980   0.57452

 Mulliken charges:
               1
     1  O   -0.176830
     2  H    0.236170
     3  Cl  -0.059340
 Sum of Mulliken charges =   0.00000

 Dipole moment (field-independent basis, Debye):
    X=             -1.5890    Y=              1.1923    Z=              0.0000  Tot=              1.9865
 Quadrupole moment (field-independent basis, Debye-Ang):
   XX=            -15.5180   YY=            -15.7635   ZZ=            -17.0262
   XY=             -2.0173   XZ=              0.0000   YZ=              0.0000

 Summary of Natural Population Analysis:

                                     Natural Population
             Natural    ---------------------------------------------
  Atom No    Charge        Core      Valence    Rydberg      Total
 --------------------------------------------------------------------
    O  1   -0.16563      2.00000     6.16563    0.00000     8.16563
    H  2    0.23804      0.00000     0.76196    0.00000     0.76196
   Cl  3   -0.07242      9.99999     7.07243    0.00000    17.07242
 ====================================================================
 * Total *  0.00000     11.99999    14.00001    0.00000    26.00000

 Normal termination of Gaussian 16 at Mon Nov 18 15:41:19 2024.
