 Gaussian 16, Revision C.01,
 Gaussian 16:  ES64L-G16RevC.01  3-Jul-2019

 -----------------------------------------------------------------
 #RHF/STO-3G int=nobasistransform Symmetry=None 5D 7F Pop=NBO7Read
 -----------------------------------------------------------------

 ---------
 mol93-NBO
 ---------
 Symbolic Z-matrix:
 Charge =  0 Multiplicity = 1

                          Input orientation:
 ---------------------------------------------------------------------
 Center     Atomic      Atomic             Coordinates (Angstroms)
 Number     Number       Type             X           Y           Z
 ---------------------------------------------------------------------
      1          6           0        0.000000    0.000000    0.502903
      2          9           0        0.000000    1.109716   -0.290601
      3          9           0        0.000000   -1.109716   -0.290601
      4          1           0       -0.908369    0.000000    1.106699
      5          1           0        0.908369    0.000000    1.106699
 ---------------------------------------------------------------------

 SCF Done:  E(RHF) =  -234.625843670     A.U. after    9 cycles

 Alpha  occ. eigenvalues --  -25.94684 -25.94670 -11.19547  -1.54338  -1.47944
 Alpha  occ. eigenvalues --   -0.88073  -0.67867  -0.63171  -0.59072  -0.49090
 Alpha  occ. eigenvalues --   -0.45345  -0.44846  -0.41001
 Alpha virt. eigenvalues --    0.58131   0.60241   0.68067   0.68369

 Mulliken charges:
               1
     1  C    0.168105
     2  F   -0.152361
     3  F   -0.152361
     4  H    0.068309
     5  H    0.068309
 Sum of Mulliken charges =   0.00000

 Dipole moment (field-independent basis, Debye):
    X=             -0.0000    Y=              0.0000    Z=              1.2809  Tot=              1.2809
 Quadrupole moment (field-independent basis, Debye-Ang):
   XX=            -13.7444   YY=            -16.4949   ZZ=            -13.8826
   XY=             -0.0000   XZ=             -0.0000   YZ=             -0.0000

 Summary of Natural Population Analysis:

                                     Natural Population
             Natural    ---------------------------------------------
  Atom No    Charge        Core      Valence    Rydberg      Total
 --------------------------------------------------------------------
    C  1    0.31178      1.99998     3.68824    0.00000     5.68822
    F  2   -0.17250      2.00000     7.17250    0.00000     9.17250
    F  3   -0.17250      2.00000     7.17250    0.00000     9.17250
    H  4    0.01661      0.00000     0.98339    0.00000     0.98339
    H  5    0.01661      0.00000     0.98339    0.00000     0.98339
 ====================================================================
 * Total *  0.00000      5.99998    20.00002    0.00000    26.00000

 Normal termination of Gaussian 16 at Mon Nov 18 15:41:42 2024.
