 Gaussian 16, Revision C.01,
 Gaussian 16:  ES64L-G16RevC.01  3-Jul-2019

 -----------------------------------------------------------------
 #RHF/6-31G* int=nobasistransform Symmetry=None 5D 7F Pop=NBO7Read
 -----------------------------------------------------------------

 ---------
 mol84-NBO
 ---------
 Symbolic Z-matrix:
 Charge =  0 Multiplicity = 1

                          Input orientation:
 ---------------------------------------------------------------------
 Center     Atomic      Atomic             Coordinates (Angstroms)
 Number     Number       Type             X           Y           Z
 ---------------------------------------------------------------------
      1          6           0        0.000000    0.000000    0.315026
      2          6           0        0.000000   -0.767920   -0.932032
      3          6           0        0.000000    0.767920   -0.932032
      4          6           0        0.000000    0.000000    1.640027
      5          1           0       -0.912794   -1.271789   -1.239303
      6          1           0        0.912794   -1.271789   -1.239303
      7          1           0        0.912794    1.271789   -1.239303
      8          1           0       -0.912794    1.271789   -1.239303
      9          1           0        0.000000   -0.926908    2.205640
     10          1           0        0.000000    0.926908    2.205640
 ---------------------------------------------------------------------

 SCF Done:  E(RHF) =  -154.885899810     A.U. after   12 cycles

 Alpha  occ. eigenvalues --  -11.24137 -11.22988 -11.22936 -11.22070  -1.14774
 Alpha  occ. eigenvalues --   -0.96870  -0.83028  -0.72577  -0.64296  -0.63391
 Alpha  occ. eigenvalues --   -0.59096  -0.51919  -0.43306  -0.41924  -0.35572
 Alpha virt. eigenvalues --    0.16958   0.25699   0.28950   0.29039   0.30154
 Alpha virt. eigenvalues --    0.33168   0.37493   0.38053   0.40964   0.46455
 Alpha virt. eigenvalues --    0.51091   0.65961   0.72567   0.73551   0.76989

 Mulliken charges:
               1
     1  C    0.131845
     2  C   -0.403783
     3  C   -0.403783
     4  C   -0.467358
     5  H    0.194530
     6  H    0.194530
     7  H    0.194530
     8  H    0.194530
     9  H    0.182481
    10  H    0.182481
 Sum of Mulliken charges =  -0.00000

 Dipole moment (field-independent basis, Debye):
    X=             -0.0000    Y=              0.0000    Z=             -0.4041  Tot=              0.4041
 Quadrupole moment (field-independent basis, Debye-Ang):
   XX=            -25.4995   YY=            -24.2996   ZZ=            -24.3921
   XY=              0.0000   XZ=              0.0000   YZ=              0.0000

 Summary of Natural Population Analysis:

                                     Natural Population
             Natural    ---------------------------------------------
  Atom No    Charge        Core      Valence    Rydberg      Total
 --------------------------------------------------------------------
    C  1   -0.03022      1.99999     4.00470    0.02553     6.03022
    C  2   -0.45805      1.99999     4.44243    0.01563     6.45805
    C  3   -0.45805      1.99999     4.44243    0.01563     6.45805
    C  4   -0.42206      1.99999     4.40521    0.01686     6.42206
    H  5    0.23449      0.00000     0.76468    0.00083     0.76551
    H  6    0.23449      0.00000     0.76468    0.00083     0.76551
    H  7    0.23449      0.00000     0.76468    0.00083     0.76551
    H  8    0.23449      0.00000     0.76468    0.00083     0.76551
    H  9    0.21522      0.00000     0.78394    0.00084     0.78478
    H 10    0.21522      0.00000     0.78394    0.00084     0.78478
 ====================================================================
 * Total *  0.00000      7.99997    21.92135    0.07868    30.00000

 Normal termination of Gaussian 16 at Mon Nov 18 16:40:42 2024.
