 Gaussian 16, Revision C.01,
 Gaussian 16:  ES64L-G16RevC.01  3-Jul-2019

 -----------------------
 #RHF/4-31G Pop=NBO7Read
 -----------------------

 -----
 NBO-a
 -----
 Symbolic Z-matrix:
 Charge =  0 Multiplicity = 1

                         Standard orientation:
 ---------------------------------------------------------------------
 Center     Atomic      Atomic             Coordinates (Angstroms)
 Number     Number       Type             X           Y           Z
 ---------------------------------------------------------------------
      1          6           0        0.000000    0.398109    0.000000
      2          3           0        0.000000   -1.610325   -0.000000
      3          1           0        0.999596    0.814106    0.000000
      4          1           0       -0.499798    0.814106    0.865676
      5          1           0       -0.499798    0.814106   -0.865676
 ---------------------------------------------------------------------

 SCF Done:  E(RHF) =  -46.9596033357     A.U. after   11 cycles

 The electronic state is 1-A'.
 Alpha  occ. eigenvalues --  -11.08780  -2.41968  -0.82839  -0.45214  -0.45214
 Alpha  occ. eigenvalues --   -0.27608
 Alpha virt. eigenvalues --    0.01857   0.07691   0.07691   0.13248   0.25496
 Alpha virt. eigenvalues --    0.25496   0.26129   0.40444   0.41366   0.41366
 Alpha virt. eigenvalues --    0.52247   0.95201   0.95201   1.12996   1.32120

 Mulliken charges:
               1
     1  C   -0.754436
     2  Li   0.459836
     3  H    0.098200
     4  H    0.098200
     5  H    0.098200
 Sum of Mulliken charges =  -0.00000

 Dipole moment (field-independent basis, Debye):
    X=              0.0000    Y=             -5.5295    Z=             -0.0000  Tot=              5.5295
 Quadrupole moment (field-independent basis, Debye-Ang):
   XX=            -11.5135   YY=             -0.6146   ZZ=            -11.5135
   XY=              0.0000   XZ=             -0.0000   YZ=              0.0000

 Summary of Natural Population Analysis:

                                     Natural Population
             Natural    ---------------------------------------------
  Atom No    Charge        Core      Valence    Rydberg      Total
 --------------------------------------------------------------------
    C  1   -1.40013      1.99993     5.37857    0.02163     7.40013
   Li  2    0.80270      1.99991     0.17210    0.02529     2.19730
    H  3    0.19914      0.00000     0.79966    0.00119     0.80086
    H  4    0.19914      0.00000     0.79966    0.00119     0.80086
    H  5    0.19914      0.00000     0.79966    0.00119     0.80086
 ====================================================================
 * Total *  0.00000      3.99984     7.94967    0.05050    12.00000

 Normal termination of Gaussian 16 at Wed Jul 24 13:56:58 2024.
