 Gaussian 16, Revision C.01,
 Gaussian 16:  ES64L-G16RevC.01  3-Jul-2019

 -----------------------------------------------------------------
 #RHF/6-31G* int=nobasistransform Symmetry=None 5D 7F Pop=NBO7Read
 -----------------------------------------------------------------

 ---------
 mol87-NBO
 ---------
 Symbolic Z-matrix:
 Charge =  0 Multiplicity = 1

                          Input orientation:
 ---------------------------------------------------------------------
 Center     Atomic      Atomic             Coordinates (Angstroms)
 Number     Number       Type             X           Y           Z
 ---------------------------------------------------------------------
      1          6           0        0.000000    1.071142    0.147626
      2          6           0        0.000000   -1.071142    0.147626
      3          6           0       -1.071142    0.000000   -0.147626
      4          6           0        1.071142    0.000000   -0.147626
      5          1           0        0.000000    1.986858   -0.450077
      6          1           0        0.000000    1.342921    1.207520
      7          1           0        0.000000   -1.986858   -0.450077
      8          1           0        0.000000   -1.342921    1.207520
      9          1           0       -1.986858    0.000000    0.450077
     10          1           0       -1.342921    0.000000   -1.207520
     11          1           0        1.986858    0.000000    0.450077
     12          1           0        1.342921    0.000000   -1.207520
 ---------------------------------------------------------------------

 SCF Done:  E(RHF) =  -156.095692498     A.U. after    9 cycles

 Alpha  occ. eigenvalues --  -11.21344 -11.21290 -11.21290 -11.21235  -1.12640
 Alpha  occ. eigenvalues --   -0.88955  -0.88955  -0.74916  -0.64572  -0.64084
 Alpha  occ. eigenvalues --   -0.53240  -0.53240  -0.48180  -0.45084  -0.43559
 Alpha  occ. eigenvalues --   -0.43559
 Alpha virt. eigenvalues --    0.23636   0.24918   0.28959   0.28959   0.32774
 Alpha virt. eigenvalues --    0.35226   0.35226   0.37007   0.37007   0.38099
 Alpha virt. eigenvalues --    0.42645   0.49238   0.71192   0.73755   0.75005

 Mulliken charges:
               1
     1  C   -0.329463
     2  C   -0.329463
     3  C   -0.329463
     4  C   -0.329463
     5  H    0.164132
     6  H    0.165331
     7  H    0.164132
     8  H    0.165331
     9  H    0.164132
    10  H    0.165331
    11  H    0.164132
    12  H    0.165331
 Sum of Mulliken charges =  -0.00000

 Dipole moment (field-independent basis, Debye):
    X=             -0.0000    Y=             -0.0000    Z=             -0.0000  Tot=              0.0000
 Quadrupole moment (field-independent basis, Debye-Ang):
   XX=            -27.3488   YY=            -27.3488   ZZ=            -26.0510
   XY=              0.0000   XZ=              0.0000   YZ=              0.0000

 Summary of Natural Population Analysis:

                                     Natural Population
             Natural    ---------------------------------------------
  Atom No    Charge        Core      Valence    Rydberg      Total
 --------------------------------------------------------------------
    C  1   -0.43088      1.99999     4.41397    0.01692     6.43088
    C  2   -0.43088      1.99999     4.41397    0.01692     6.43088
    C  3   -0.43088      1.99999     4.41397    0.01692     6.43088
    C  4   -0.43088      1.99999     4.41397    0.01692     6.43088
    H  5    0.21616      0.00000     0.78316    0.00068     0.78384
    H  6    0.21472      0.00000     0.78381    0.00147     0.78528
    H  7    0.21616      0.00000     0.78316    0.00068     0.78384
    H  8    0.21472      0.00000     0.78381    0.00147     0.78528
    H  9    0.21616      0.00000     0.78316    0.00068     0.78384
    H 10    0.21472      0.00000     0.78381    0.00147     0.78528
    H 11    0.21616      0.00000     0.78316    0.00068     0.78384
    H 12    0.21472      0.00000     0.78381    0.00147     0.78528
 ====================================================================
 * Total *  0.00000      7.99997    23.92373    0.07630    32.00000

 Normal termination of Gaussian 16 at Mon Nov 18 16:40:43 2024.
