 Gaussian 16, Revision C.01,
 Gaussian 16:  ES64L-G16RevC.01  3-Jul-2019

 -----------------------------------------------------------------
 #RHF/STO-3G int=nobasistransform Symmetry=None 5D 7F Pop=NBO7Read
 -----------------------------------------------------------------

 ---------
 mol32-NBO
 ---------
 Symbolic Z-matrix:
 Charge =  0 Multiplicity = 1

                          Input orientation:
 ---------------------------------------------------------------------
 Center     Atomic      Atomic             Coordinates (Angstroms)
 Number     Number       Type             X           Y           Z
 ---------------------------------------------------------------------
      1          7           0        0.000000    0.000000    0.564990
      2          7           0        0.000000    0.000000   -0.564990
 ---------------------------------------------------------------------

 SCF Done:  E(RHF) =  -107.500603360     A.U. after    5 cycles

 Alpha  occ. eigenvalues --  -15.50750 -15.50608  -1.41208  -0.72699  -0.55114
 Alpha  occ. eigenvalues --   -0.55114  -0.53123
 Alpha virt. eigenvalues --    0.26697   0.26697   1.04927

 Mulliken charges:
               1
     1  N    0.000000
     2  N   -0.000000
 Sum of Mulliken charges =   0.00000

 Dipole moment (field-independent basis, Debye):
    X=             -0.0000    Y=              0.0000    Z=              0.0000  Tot=              0.0000
 Quadrupole moment (field-independent basis, Debye-Ang):
   XX=             -9.2160   YY=             -9.2160   ZZ=            -11.7517
   XY=             -0.0000   XZ=             -0.0000   YZ=             -0.0000

 Summary of Natural Population Analysis:

                                     Natural Population
             Natural    ---------------------------------------------
  Atom No    Charge        Core      Valence    Rydberg      Total
 --------------------------------------------------------------------
    N  1    0.00000      2.00000     5.00000    0.00000     7.00000
    N  2    0.00000      2.00000     5.00000    0.00000     7.00000
 ====================================================================
 * Total *  0.00000      4.00000    10.00000    0.00000    14.00000

 Normal termination of Gaussian 16 at Mon Nov 18 15:41:20 2024.
