 Gaussian 16, Revision C.01,
 Gaussian 16:  ES64L-G16RevC.01  3-Jul-2019

 -----------------------------------------------------------------
 #RHF/6-31G* int=nobasistransform Symmetry=None 5D 7F Pop=NBO7Read
 -----------------------------------------------------------------

 ----------
 mol121-NBO
 ----------
 Symbolic Z-matrix:
 Charge =  0 Multiplicity = 1

                          Input orientation:
 ---------------------------------------------------------------------
 Center     Atomic      Atomic             Coordinates (Angstroms)
 Number     Number       Type             X           Y           Z
 ---------------------------------------------------------------------
      1          6           0        0.000000    0.756016    0.000000
      2          6           0        1.303223    1.028507    0.000000
      3         17           0       -0.631555   -0.854980    0.000000
      4          1           0       -0.771098    1.516963    0.000000
      5          1           0        2.056095    0.249427    0.000000
      6          1           0        1.632096    2.061125    0.000000
 ---------------------------------------------------------------------

 SCF Done:  E(RHF) =  -536.930885315     A.U. after   13 cycles

 Alpha  occ. eigenvalues -- -104.81996 -11.30082 -11.24815 -10.55952  -8.02811
 Alpha  occ. eigenvalues --   -8.02469  -8.02469  -1.15678  -1.01199  -0.79194
 Alpha  occ. eigenvalues --   -0.66017  -0.61305  -0.52997  -0.50820  -0.45167
 Alpha  occ. eigenvalues --   -0.36812
 Alpha virt. eigenvalues --    0.15603   0.21138   0.25418   0.28097   0.36733
 Alpha virt. eigenvalues --    0.45001   0.57718   0.63022   0.64151   0.65088
 Alpha virt. eigenvalues --    0.67190   0.76886   0.78142   0.86991   0.89759

 Mulliken charges:
               1
     1  C   -0.261831
     2  C   -0.358021
     3  Cl  -0.031188
     4  H    0.236483
     5  H    0.212010
     6  H    0.202547
 Sum of Mulliken charges =  -0.00000

 Dipole moment (field-independent basis, Debye):
    X=              0.7967    Y=              1.6128    Z=             -0.0000  Tot=              1.7989
 Quadrupole moment (field-independent basis, Debye-Ang):
   XX=            -23.2820   YY=            -23.0991   ZZ=            -27.2369
   XY=             -0.1332   XZ=              0.0000   YZ=             -0.0000

 Summary of Natural Population Analysis:

                                     Natural Population
             Natural    ---------------------------------------------
  Atom No    Charge        Core      Valence    Rydberg      Total
 --------------------------------------------------------------------
    C  1   -0.23369      1.99999     4.20862    0.02508     6.23369
    C  2   -0.42318      1.99999     4.40155    0.02164     6.42318
   Cl  3   -0.03836      9.99999     7.01172    0.02665    17.03836
    H  4    0.24020      0.00000     0.75839    0.00140     0.75980
    H  5    0.22802      0.00000     0.77123    0.00074     0.77198
    H  6    0.22701      0.00000     0.77258    0.00041     0.77299
 ====================================================================
 * Total *  0.00000     13.99998    17.92410    0.07592    32.00000

 Normal termination of Gaussian 16 at Mon Nov 18 16:41:12 2024.
