 Gaussian 16, Revision C.01,
 Gaussian 16:  ES64L-G16RevC.01  3-Jul-2019

 ----------------------------------------------------
 #OPT=VeryTight Int=UltraFine RHF/STO-3G Pop=NBO7Read
 ----------------------------------------------------

 ----------
 NBO-CH3NH2
 ----------
 Symbolic Z-matrix:
 Charge =  0 Multiplicity = 1

 SCF Done:  E(RHF) =  -94.0293015013     A.U. after   10 cycles
 SCF Done:  E(RHF) =  -94.0323455020     A.U. after    9 cycles
 SCF Done:  E(RHF) =  -94.0328515954     A.U. after    9 cycles
 SCF Done:  E(RHF) =  -94.0328621960     A.U. after    8 cycles
 SCF Done:  E(RHF) =  -94.0328627885     A.U. after    7 cycles
 SCF Done:  E(RHF) =  -94.0328628539     A.U. after    6 cycles
 SCF Done:  E(RHF) =  -94.0328628594     A.U. after    6 cycles
 Optimization completed.
    -- Stationary point found.

                         Standard orientation:
 ---------------------------------------------------------------------
 Center     Atomic      Atomic             Coordinates (Angstroms)
 Number     Number       Type             X           Y           Z
 ---------------------------------------------------------------------
      1          6           0       -0.715076    0.000000    0.016474
      2          1           0       -1.125266   -0.881976   -0.472670
      3          1           0       -1.048080   -0.000000    1.057644
      4          1           0       -1.125266    0.881977   -0.472670
      5          7           0        0.762362    0.000000   -0.138664
      6          1           0        1.126265    0.816501    0.379751
      7          1           0        1.126265   -0.816501    0.379751
 ---------------------------------------------------------------------

 The electronic state is 1-A.
 Alpha  occ. eigenvalues --  -15.31561 -11.06760  -1.11513  -0.85790  -0.60857
 Alpha  occ. eigenvalues --   -0.56254  -0.50198  -0.47990  -0.32852
 Alpha virt. eigenvalues --    0.60923   0.65072   0.66149   0.73923   0.74532
 Alpha virt. eigenvalues --    0.75699

 Mulliken charges:
               1
     1  C   -0.097889
     2  H    0.066858
     3  H    0.047861
     4  H    0.066858
     5  N   -0.375569
     6  H    0.145940
     7  H    0.145940
 Sum of Mulliken charges =  -0.00000

 Dipole moment (field-independent basis, Debye):
    X=             -0.4005    Y=             -0.0000    Z=              1.5660  Tot=              1.6164
 Quadrupole moment (field-independent basis, Debye-Ang):
   XX=            -13.1768   YY=            -12.1155   ZZ=            -13.8214
   XY=             -0.0000   XZ=              1.8416   YZ=              0.0000

 Summary of Natural Population Analysis:

                                     Natural Population
             Natural    ---------------------------------------------
  Atom No    Charge        Core      Valence    Rydberg      Total
 --------------------------------------------------------------------
    C  1   -0.03186      1.99999     4.03187    0.00000     6.03186
    H  2    0.04335      0.00000     0.95665    0.00000     0.95665
    H  3    0.02479      0.00000     0.97521    0.00000     0.97521
    H  4    0.04335      0.00000     0.95665    0.00000     0.95665
    N  5   -0.36473      2.00000     5.36473    0.00000     7.36473
    H  6    0.14255      0.00000     0.85745    0.00000     0.85745
    H  7    0.14255      0.00000     0.85745    0.00000     0.85745
 ====================================================================
 * Total *  0.00000      3.99999    14.00001    0.00000    18.00000

 Normal termination of Gaussian 16 at Wed Jul 24 11:04:46 2024.
