 Gaussian 16, Revision C.01,
 Gaussian 16:  ES64L-G16RevC.01  3-Jul-2019

 -----------------------------------------------------------------
 #RHF/6-31G* int=nobasistransform Symmetry=None 5D 7F Pop=NBO7Read
 -----------------------------------------------------------------

 ----------
 mol117-NBO
 ----------
 Symbolic Z-matrix:
 Charge =  0 Multiplicity = 1

                          Input orientation:
 ---------------------------------------------------------------------
 Center     Atomic      Atomic             Coordinates (Angstroms)
 Number     Number       Type             X           Y           Z
 ---------------------------------------------------------------------
      1          6           0        1.514343    0.679412    0.000000
      2          6           0        0.000000    0.826412    0.000000
      3         16           0       -0.756068   -0.831284    0.000000
      4          1           0       -2.035346   -0.427738    0.000000
      5          1           0       -0.324970    1.376482    0.885793
      6          1           0       -0.324970    1.376482   -0.885793
      7          1           0        1.986503    1.665082    0.000000
      8          1           0        1.854904    0.137645    0.885494
      9          1           0        1.854904    0.137645   -0.885494
 ---------------------------------------------------------------------

 SCF Done:  E(RHF) =  -476.733248989     A.U. after   11 cycles

 Alpha  occ. eigenvalues --  -91.92861 -11.26010 -11.22521  -8.94633  -6.62859
 Alpha  occ. eigenvalues --   -6.62694  -6.62465  -1.07338  -0.94478  -0.81828
 Alpha  occ. eigenvalues --   -0.63213  -0.61863  -0.54115  -0.51420  -0.50172
 Alpha  occ. eigenvalues --   -0.44900  -0.35351
 Alpha virt. eigenvalues --    0.17463   0.23079   0.26142   0.28810   0.29145
 Alpha virt. eigenvalues --    0.32307   0.32917   0.37538   0.53792   0.55134
 Alpha virt. eigenvalues --    0.56881   0.57167   0.68552   0.73286   0.82257

 Mulliken charges:
               1
     1  C   -0.508008
     2  C   -0.460401
     3  S   -0.058297
     4  H    0.087111
     5  H    0.196487
     6  H    0.196487
     7  H    0.177935
     8  H    0.184342
     9  H    0.184342
 Sum of Mulliken charges =  -0.00000

 Dipole moment (field-independent basis, Debye):
    X=             -0.0374    Y=              1.8152    Z=              0.0000  Tot=              1.8155
 Quadrupole moment (field-independent basis, Debye-Ang):
   XX=            -25.1319   YY=            -28.7236   ZZ=            -29.2841
   XY=             -0.2418   XZ=              0.0000   YZ=             -0.0000

 Summary of Natural Population Analysis:

                                     Natural Population
             Natural    ---------------------------------------------
  Atom No    Charge        Core      Valence    Rydberg      Total
 --------------------------------------------------------------------
    C  1   -0.65148      1.99999     4.63667    0.01482     6.65148
    C  2   -0.56185      1.99999     4.54626    0.01560     6.56185
    S  3   -0.04321      9.99998     5.99557    0.04766    16.04321
    H  4    0.11579      0.00000     0.88358    0.00063     0.88421
    H  5    0.23202      0.00000     0.76539    0.00259     0.76798
    H  6    0.23202      0.00000     0.76539    0.00259     0.76798
    H  7    0.22632      0.00000     0.77274    0.00094     0.77368
    H  8    0.22521      0.00000     0.77341    0.00138     0.77479
    H  9    0.22521      0.00000     0.77341    0.00138     0.77479
 ====================================================================
 * Total *  0.00000     13.99997    19.91242    0.08761    34.00000

 Normal termination of Gaussian 16 at Mon Nov 18 16:41:11 2024.
