 Gaussian 16, Revision C.01,
 Gaussian 16:  ES64L-G16RevC.01  3-Jul-2019

 -----------------------------------------------------------------
 #RHF/STO-3G int=nobasistransform Symmetry=None 5D 7F Pop=NBO7Read
 -----------------------------------------------------------------

 ----------
 mol111-NBO
 ----------
 Symbolic Z-matrix:
 Charge =  0 Multiplicity = 1

                          Input orientation:
 ---------------------------------------------------------------------
 Center     Atomic      Atomic             Coordinates (Angstroms)
 Number     Number       Type             X           Y           Z
 ---------------------------------------------------------------------
      1          8           0        1.218055    0.361240    0.000000
      2          6           0        0.000000    0.464133    0.000000
      3          1           0       -0.477241    1.465295    0.000000
      4          6           0       -0.948102   -0.700138    0.000000
      5          1           0       -0.385946   -1.634236    0.000000
      6          1           0       -1.596321   -0.652475    0.880946
      7          1           0       -1.596321   -0.652475   -0.880946
 ---------------------------------------------------------------------

 SCF Done:  E(RHF) =  -150.944829413     A.U. after   11 cycles

 Alpha  occ. eigenvalues --  -20.28658 -11.11998 -11.05679  -1.32389  -0.96552
 Alpha  occ. eigenvalues --   -0.74313  -0.61036  -0.56045  -0.54385  -0.49856
 Alpha  occ. eigenvalues --   -0.40918  -0.33762
 Alpha virt. eigenvalues --    0.28966   0.62605   0.66614   0.69932   0.72030
 Alpha virt. eigenvalues --    0.77316   0.96730

 Mulliken charges:
               1
     1  O   -0.209477
     2  C    0.143110
     3  H    0.045019
     4  C   -0.204915
     5  H    0.078329
     6  H    0.073967
     7  H    0.073967
 Sum of Mulliken charges =  -0.00000

 Dipole moment (field-independent basis, Debye):
    X=             -1.8114    Y=             -0.0942    Z=              0.0000  Tot=              1.8139
 Quadrupole moment (field-independent basis, Debye-Ang):
   XX=            -19.1120   YY=            -16.7403   ZZ=            -16.4353
   XY=             -0.6492   XZ=             -0.0000   YZ=             -0.0000

 Summary of Natural Population Analysis:

                                     Natural Population
             Natural    ---------------------------------------------
  Atom No    Charge        Core      Valence    Rydberg      Total
 --------------------------------------------------------------------
    O  1   -0.21885      2.00000     6.21885    0.00000     8.21885
    C  2    0.22872      1.99999     3.77128    0.00000     5.77128
    H  3    0.00048      0.00000     0.99952    0.00000     0.99952
    C  4   -0.19662      2.00000     4.19662    0.00000     6.19662
    H  5    0.06342      0.00000     0.93658    0.00000     0.93658
    H  6    0.06142      0.00000     0.93858    0.00000     0.93858
    H  7    0.06142      0.00000     0.93858    0.00000     0.93858
 ====================================================================
 * Total *  0.00000      5.99999    18.00001    0.00000    24.00000

 Normal termination of Gaussian 16 at Mon Nov 18 15:41:27 2024.
