 Gaussian 16, Revision C.01,
 Gaussian 16:  ES64L-G16RevC.01  3-Jul-2019

 ------------------------
 #RHF/6-31G* Pop=NBO7Read
 ------------------------

 -----
 NBO-a
 -----
 Symbolic Z-matrix:
 Charge =  0 Multiplicity = 1

                         Standard orientation:
 ---------------------------------------------------------------------
 Center     Atomic      Atomic             Coordinates (Angstroms)
 Number     Number       Type             X           Y           Z
 ---------------------------------------------------------------------
      1          3           0        0.000000    0.000000   -1.055268
      2          9           0        0.000000    0.000000    0.351756
 ---------------------------------------------------------------------

 SCF Done:  E(RHF) =  -106.923574422     A.U. after   10 cycles

 The electronic state is 1-SG.
 Alpha  occ. eigenvalues --  -26.11669  -2.41062  -1.38274  -0.50211  -0.47934
 Alpha  occ. eigenvalues --   -0.47934
 Alpha virt. eigenvalues --    0.01057   0.07682   0.07682   0.12129   0.20426
 Alpha virt. eigenvalues --    0.25564   0.25564   0.39796   0.59110   0.59110
 Alpha virt. eigenvalues --    0.68597   0.68597   0.72255   1.18493   1.77305

 Mulliken charges:
               1
     1  Li   0.638505
     2  F   -0.638505
 Sum of Mulliken charges =  -0.00000

 Dipole moment (field-independent basis, Debye):
    X=              0.0000    Y=              0.0000    Z=             -5.5734  Tot=              5.5734
 Quadrupole moment (field-independent basis, Debye-Ang):
   XX=             -6.9529   YY=             -6.9529   ZZ=             -1.6825
   XY=              0.0000   XZ=              0.0000   YZ=              0.0000

 Summary of Natural Population Analysis:

                                     Natural Population
             Natural    ---------------------------------------------
  Atom No    Charge        Core      Valence    Rydberg      Total
 --------------------------------------------------------------------
   Li  1    0.92866      1.99980     0.00071    0.07083     2.07134
    F  2   -0.92866      2.00000     7.92439    0.00427     9.92866
 ====================================================================
 * Total *  0.00000      3.99980     7.92510    0.07510    12.00000

 Normal termination of Gaussian 16 at Wed Jul 24 13:51:14 2024.
