 Gaussian 16, Revision C.01,
 Gaussian 16:  ES64L-G16RevC.01  3-Jul-2019

 -----------------------------------------------------------------
 #RHF/STO-3G int=nobasistransform Symmetry=None 5D 7F Pop=NBO7Read
 -----------------------------------------------------------------

 ---------
 mol16-NBO
 ---------
 Symbolic Z-matrix:
 Charge =  0 Multiplicity = 1

                          Input orientation:
 ---------------------------------------------------------------------
 Center     Atomic      Atomic             Coordinates (Angstroms)
 Number     Number       Type             X           Y           Z
 ---------------------------------------------------------------------
      1         14           0        0.000000    0.000000    0.000000
      2          1           0        0.856135    0.856135    0.856135
      3          1           0       -0.856135   -0.856135    0.856135
      4          1           0       -0.856135    0.856135   -0.856135
      5          1           0        0.856135   -0.856135   -0.856135
 ---------------------------------------------------------------------

 SCF Done:  E(RHF) =  -287.909495852     A.U. after    6 cycles

 Alpha  occ. eigenvalues --  -67.97101  -5.95404  -3.97936  -3.97936  -3.97936
 Alpha  occ. eigenvalues --   -0.68738  -0.42075  -0.42075  -0.42075
 Alpha virt. eigenvalues --    0.51802   0.55147   0.55147   0.55147

 Mulliken charges:
               1
     1  Si   0.621284
     2  H   -0.155321
     3  H   -0.155321
     4  H   -0.155321
     5  H   -0.155321
 Sum of Mulliken charges =   0.00000

 Dipole moment (field-independent basis, Debye):
    X=              0.0000    Y=             -0.0000    Z=              0.0000  Tot=              0.0000
 Quadrupole moment (field-independent basis, Debye-Ang):
   XX=            -14.8655   YY=            -14.8655   ZZ=            -14.8655
   XY=              0.0000   XZ=             -0.0000   YZ=              0.0000

 Summary of Natural Population Analysis:

                                     Natural Population
             Natural    ---------------------------------------------
  Atom No    Charge        Core      Valence    Rydberg      Total
 --------------------------------------------------------------------
   Si  1    0.71673     10.00000     3.28327    0.00000    13.28327
    H  2   -0.17918      0.00000     1.17918    0.00000     1.17918
    H  3   -0.17918      0.00000     1.17918    0.00000     1.17918
    H  4   -0.17918      0.00000     1.17918    0.00000     1.17918
    H  5   -0.17918      0.00000     1.17918    0.00000     1.17918
 ====================================================================
 * Total *  0.00000     10.00000     8.00000    0.00000    18.00000

 Normal termination of Gaussian 16 at Mon Nov 18 15:41:33 2024.
