 Gaussian 16, Revision C.01,
 Gaussian 16:  ES64L-G16RevC.01  3-Jul-2019

 -----------------------------------------------------------------
 #RHF/6-31G* int=nobasistransform Symmetry=None 5D 7F Pop=NBO7Read
 -----------------------------------------------------------------

 ---------
 mol13-NBO
 ---------
 Symbolic Z-matrix:
 Charge =  0 Multiplicity = 1

                          Input orientation:
 ---------------------------------------------------------------------
 Center     Atomic      Atomic             Coordinates (Angstroms)
 Number     Number       Type             X           Y           Z
 ---------------------------------------------------------------------
      1         14           0        0.000000    0.000000    0.131272
      2          1           0        0.000000    1.096938   -0.918905
      3          1           0        0.000000   -1.096938   -0.918905
 ---------------------------------------------------------------------

 SCF Done:  E(RHF) =  -289.998810207     A.U. after    9 cycles

 Alpha  occ. eigenvalues --  -68.78467  -6.14378  -4.24696  -4.24461  -4.24347
 Alpha  occ. eigenvalues --   -0.67555  -0.45918  -0.33565
 Alpha virt. eigenvalues --    0.00823   0.15365   0.23650   0.28970   0.39133
 Alpha virt. eigenvalues --    0.40559   0.40844   0.80522   0.81016   0.81081
 Alpha virt. eigenvalues --    0.86152   0.89837   1.25814   1.38678

 Mulliken charges:
               1
     1  Si   0.328701
     2  H   -0.164350
     3  H   -0.164350
 Sum of Mulliken charges =   0.00000

 Dipole moment (field-independent basis, Debye):
    X=             -0.0000    Y=              0.0000    Z=             -0.4651  Tot=              0.4651
 Quadrupole moment (field-independent basis, Debye-Ang):
   XX=            -11.9760   YY=            -16.3575   ZZ=            -18.8251
   XY=             -0.0000   XZ=             -0.0000   YZ=              0.0000

 Summary of Natural Population Analysis:

                                     Natural Population
             Natural    ---------------------------------------------
  Atom No    Charge        Core      Valence    Rydberg      Total
 --------------------------------------------------------------------
   Si  1    0.65333      9.99999     3.29765    0.04904    13.34667
    H  2   -0.32666      0.00000     1.32612    0.00054     1.32666
    H  3   -0.32666      0.00000     1.32612    0.00054     1.32666
 ====================================================================
 * Total *  0.00000      9.99999     5.94989    0.05012    16.00000

 Normal termination of Gaussian 16 at Mon Nov 18 16:40:08 2024.
