 Gaussian 16, Revision C.01,
 Gaussian 16:  ES64L-G16RevC.01  3-Jul-2019

 -----------------------------------------------------------------
 #RHF/STO-3G int=nobasistransform Symmetry=None 5D 7F Pop=NBO7Read
 -----------------------------------------------------------------

 ----------
 mol118-NBO
 ----------
 Symbolic Z-matrix:
 Charge =  0 Multiplicity = 1

                          Input orientation:
 ---------------------------------------------------------------------
 Center     Atomic      Atomic             Coordinates (Angstroms)
 Number     Number       Type             X           Y           Z
 ---------------------------------------------------------------------
      1          6           0        0.000000    1.366668   -0.513713
      2         16           0        0.000000    0.000000    0.664273
      3          6           0        0.000000   -1.366668   -0.513713
      4          1           0        0.000000    2.296687    0.057284
      5          1           0        0.891644    1.345680   -1.144596
      6          1           0       -0.891644    1.345680   -1.144596
      7          1           0        0.000000   -2.296687    0.057284
      8          1           0       -0.891644   -1.345680   -1.144596
      9          1           0        0.891644   -1.345680   -1.144596
 ---------------------------------------------------------------------

 SCF Done:  E(RHF) =  -471.482299103     A.U. after    9 cycles

 Alpha  occ. eigenvalues --  -90.74123 -11.03738 -11.03736  -8.64215  -6.27448
 Alpha  occ. eigenvalues --   -6.27219  -6.26937  -0.99958  -0.89823  -0.74334
 Alpha  occ. eigenvalues --   -0.55815  -0.55478  -0.52932  -0.52122  -0.42334
 Alpha  occ. eigenvalues --   -0.34737  -0.24517
 Alpha virt. eigenvalues --    0.45996   0.49686   0.68304   0.70469   0.70842
 Alpha virt. eigenvalues --    0.71864   0.72624   0.74933

 Mulliken charges:
               1
     1  C   -0.267659
     2  S    0.157896
     3  C   -0.267659
     4  H    0.067107
     5  H    0.060802
     6  H    0.060802
     7  H    0.067107
     8  H    0.060802
     9  H    0.060802
 Sum of Mulliken charges =  -0.00000

 Dipole moment (field-independent basis, Debye):
    X=             -0.0000    Y=              0.0000    Z=             -0.8780  Tot=              0.8780
 Quadrupole moment (field-independent basis, Debye-Ang):
   XX=            -25.3634   YY=            -23.7542   ZZ=            -25.7788
   XY=             -0.0000   XZ=              0.0000   YZ=             -0.0000

 Summary of Natural Population Analysis:

                                     Natural Population
             Natural    ---------------------------------------------
  Atom No    Charge        Core      Valence    Rydberg      Total
 --------------------------------------------------------------------
    C  1   -0.19506      2.00000     4.19506    0.00000     6.19506
    S  2    0.12874      9.99999     5.87127    0.00000    15.87126
    C  3   -0.19506      2.00000     4.19506    0.00000     6.19506
    H  4    0.04826      0.00000     0.95174    0.00000     0.95174
    H  5    0.04121      0.00000     0.95879    0.00000     0.95879
    H  6    0.04121      0.00000     0.95879    0.00000     0.95879
    H  7    0.04826      0.00000     0.95174    0.00000     0.95174
    H  8    0.04121      0.00000     0.95879    0.00000     0.95879
    H  9    0.04121      0.00000     0.95879    0.00000     0.95879
 ====================================================================
 * Total *  0.00000     13.99998    20.00002    0.00000    34.00000

 Normal termination of Gaussian 16 at Mon Nov 18 15:41:46 2024.
