 Gaussian 16, Revision C.01,
 Gaussian 16:  ES64L-G16RevC.01  3-Jul-2019

 -----------------------------------------------------------------
 #RHF/STO-3G int=nobasistransform Symmetry=None 5D 7F Pop=NBO7Read
 -----------------------------------------------------------------

 ----------
 mol132-NBO
 ----------
 Symbolic Z-matrix:
 Charge =  0 Multiplicity = 1

                          Input orientation:
 ---------------------------------------------------------------------
 Center     Atomic      Atomic             Coordinates (Angstroms)
 Number     Number       Type             X           Y           Z
 ---------------------------------------------------------------------
      1         16           0        0.000000    0.000000    1.189753
      2          6           0        0.000000    1.233876   -0.001474
      3          6           0        0.000000   -1.233876   -0.001474
      4          6           0        0.000000    0.709173   -1.272322
      5          6           0        0.000000   -0.709173   -1.272322
      6          1           0        0.000000    2.275343    0.291984
      7          1           0        0.000000   -2.275343    0.291984
      8          1           0        0.000000    1.321934   -2.167231
      9          1           0        0.000000   -1.321934   -2.167231
 ---------------------------------------------------------------------

 SCF Done:  E(RHF) =  -545.087701324     A.U. after   11 cycles

 Alpha  occ. eigenvalues --  -90.82028 -11.01424 -11.01416 -11.01101 -11.01089
 Alpha  occ. eigenvalues --   -8.71328  -6.34544  -6.34353  -6.34136  -1.10073
 Alpha  occ. eigenvalues --   -0.91203  -0.90820  -0.69668  -0.68321  -0.63184
 Alpha  occ. eigenvalues --   -0.50614  -0.47746  -0.45653  -0.44774  -0.38351
 Alpha  occ. eigenvalues --   -0.26816  -0.25106
 Alpha virt. eigenvalues --    0.26344   0.40121   0.45882   0.54502   0.61572
 Alpha virt. eigenvalues --    0.68877   0.74451   0.80158   0.89798   0.94704
 Alpha virt. eigenvalues --    1.09493

 Mulliken charges:
               1
     1  S    0.270671
     2  C   -0.182490
     3  C   -0.182490
     4  C   -0.085071
     5  C   -0.085071
     6  H    0.070719
     7  H    0.070719
     8  H    0.061507
     9  H    0.061507
 Sum of Mulliken charges =   0.00000

 Dipole moment (field-independent basis, Debye):
    X=              0.0000    Y=             -0.0000    Z=              0.2639  Tot=              0.2639
 Quadrupole moment (field-independent basis, Debye-Ang):
   XX=            -34.6743   YY=            -30.9261   ZZ=            -33.0744
   XY=             -0.0000   XZ=              0.0000   YZ=              0.0000

 Summary of Natural Population Analysis:

                                     Natural Population
             Natural    ---------------------------------------------
  Atom No    Charge        Core      Valence    Rydberg      Total
 --------------------------------------------------------------------
    S  1    0.23461      9.99994     5.76545    0.00000    15.76539
    C  2   -0.12159      2.00000     4.12159    0.00000     6.12159
    C  3   -0.12159      2.00000     4.12159    0.00000     6.12159
    C  4   -0.07765      2.00000     4.07765    0.00000     6.07765
    C  5   -0.07765      2.00000     4.07765    0.00000     6.07765
    H  6    0.04228      0.00000     0.95772    0.00000     0.95772
    H  7    0.04228      0.00000     0.95772    0.00000     0.95772
    H  8    0.03965      0.00000     0.96035    0.00000     0.96035
    H  9    0.03965      0.00000     0.96035    0.00000     0.96035
 ====================================================================
 * Total *  0.00000     17.99994    26.00006    0.00000    44.00000

 Normal termination of Gaussian 16 at Mon Nov 18 15:41:48 2024.
