 Gaussian 16, Revision C.01,
 Gaussian 16:  ES64L-G16RevC.01  3-Jul-2019

 -----------------------------------------------------------------
 #RHF/STO-3G int=nobasistransform Symmetry=None 5D 7F Pop=NBO7Read
 -----------------------------------------------------------------

 ---------
 mol86-NBO
 ---------
 Symbolic Z-matrix:
 Charge =  0 Multiplicity = 1

                          Input orientation:
 ---------------------------------------------------------------------
 Center     Atomic      Atomic             Coordinates (Angstroms)
 Number     Number       Type             X           Y           Z
 ---------------------------------------------------------------------
      1          6           0        0.000000   -0.672762    0.811217
      2          6           0        0.000000    0.672762    0.811217
      3          6           0        0.000000   -0.781980   -0.696648
      4          6           0        0.000000    0.781980   -0.696648
      5          1           0        0.000000   -1.422393    1.597763
      6          1           0        0.000000    1.422393    1.597763
      7          1           0       -0.889310   -1.239242   -1.142591
      8          1           0        0.889310   -1.239242   -1.142591
      9          1           0        0.889310    1.239242   -1.142591
     10          1           0       -0.889310    1.239242   -1.142591
 ---------------------------------------------------------------------

 SCF Done:  E(RHF) =  -153.038359940     A.U. after    9 cycles

 Alpha  occ. eigenvalues --  -11.04114 -11.04081 -11.01228 -11.01149  -1.09480
 Alpha  occ. eigenvalues --   -0.85072  -0.83397  -0.66310  -0.63030  -0.59179
 Alpha  occ. eigenvalues --   -0.47919  -0.47195  -0.41966  -0.40814  -0.29261
 Alpha virt. eigenvalues --    0.31531   0.59343   0.59370   0.64569   0.66208
 Alpha virt. eigenvalues --    0.69066   0.73866   0.76283   0.81241   0.82789
 Alpha virt. eigenvalues --    1.16426

 Mulliken charges:
               1
     1  C   -0.065656
     2  C   -0.065656
     3  C   -0.101922
     4  C   -0.101922
     5  H    0.057344
     6  H    0.057344
     7  H    0.055117
     8  H    0.055117
     9  H    0.055117
    10  H    0.055117
 Sum of Mulliken charges =   0.00000

 Dipole moment (field-independent basis, Debye):
    X=             -0.0000    Y=              0.0000    Z=             -0.0440  Tot=              0.0440
 Quadrupole moment (field-independent basis, Debye-Ang):
   XX=            -23.9251   YY=            -23.2204   ZZ=            -23.4081
   XY=             -0.0000   XZ=              0.0000   YZ=              0.0000

 Summary of Natural Population Analysis:

                                     Natural Population
             Natural    ---------------------------------------------
  Atom No    Charge        Core      Valence    Rydberg      Total
 --------------------------------------------------------------------
    C  1   -0.02941      2.00000     4.02942    0.00000     6.02941
    C  2   -0.02941      2.00000     4.02942    0.00000     6.02941
    C  3   -0.06886      2.00000     4.06886    0.00000     6.06886
    C  4   -0.06886      2.00000     4.06886    0.00000     6.06886
    H  5    0.02907      0.00000     0.97093    0.00000     0.97093
    H  6    0.02907      0.00000     0.97093    0.00000     0.97093
    H  7    0.03460      0.00000     0.96540    0.00000     0.96540
    H  8    0.03460      0.00000     0.96540    0.00000     0.96540
    H  9    0.03460      0.00000     0.96540    0.00000     0.96540
    H 10    0.03460      0.00000     0.96540    0.00000     0.96540
 ====================================================================
 * Total *  0.00000      7.99999    22.00001    0.00000    30.00000

 Normal termination of Gaussian 16 at Mon Nov 18 15:41:27 2024.
