 Gaussian 16, Revision C.01,
 Gaussian 16:  ES64L-G16RevC.01  3-Jul-2019

 -----------------------------------------------------------------
 #RHF/STO-3G int=nobasistransform Symmetry=None 5D 7F Pop=NBO7Read
 -----------------------------------------------------------------

 ---------
 mol68-NBO
 ---------
 Symbolic Z-matrix:
 Charge =  0 Multiplicity = 1

                          Input orientation:
 ---------------------------------------------------------------------
 Center     Atomic      Atomic             Coordinates (Angstroms)
 Number     Number       Type             X           Y           Z
 ---------------------------------------------------------------------
      1          7           0        0.000000    0.000000    0.489672
      2          9           0        0.000000    1.238218   -0.126952
      3          9           0        1.072328   -0.619109   -0.126952
      4          9           0       -1.072328   -0.619109   -0.126952
 ---------------------------------------------------------------------

 SCF Done:  E(RHF) =  -347.754583051     A.U. after   10 cycles

 Alpha  occ. eigenvalues --  -26.03790 -26.03781 -26.03781 -15.59106  -1.66560
 Alpha  occ. eigenvalues --   -1.52799  -1.52799  -0.98297  -0.68048  -0.68048
 Alpha  occ. eigenvalues --   -0.67814  -0.55841  -0.55841  -0.52258  -0.49701
 Alpha  occ. eigenvalues --   -0.49701  -0.39442
 Alpha virt. eigenvalues --    0.44861   0.44861   0.46782

 Mulliken charges:
               1
     1  N    0.168255
     2  F   -0.056085
     3  F   -0.056085
     4  F   -0.056085
 Sum of Mulliken charges =  -0.00000

 Dipole moment (field-independent basis, Debye):
    X=             -0.0000    Y=             -0.0000    Z=             -0.3778  Tot=              0.3778
 Quadrupole moment (field-independent basis, Debye-Ang):
   XX=            -17.3276   YY=            -17.3276   ZZ=            -17.6945
   XY=             -0.0000   XZ=              0.0000   YZ=             -0.0000

 Summary of Natural Population Analysis:

                                     Natural Population
             Natural    ---------------------------------------------
  Atom No    Charge        Core      Valence    Rydberg      Total
 --------------------------------------------------------------------
    N  1    0.26389      2.00000     4.73611    0.00000     6.73611
    F  2   -0.08796      2.00000     7.08796    0.00000     9.08796
    F  3   -0.08796      2.00000     7.08796    0.00000     9.08796
    F  4   -0.08796      2.00000     7.08796    0.00000     9.08796
 ====================================================================
 * Total *  0.00000      8.00000    26.00000    0.00000    34.00000

 Normal termination of Gaussian 16 at Mon Nov 18 15:41:33 2024.
