 Gaussian 16, Revision C.01,
 Gaussian 16:  ES64L-G16RevC.01  3-Jul-2019

 -----------------------------------------------------------------
 #RHF/STO-3G int=nobasistransform Symmetry=None 5D 7F Pop=NBO7Read
 -----------------------------------------------------------------

 ---------
 mol24-NBO
 ---------
 Symbolic Z-matrix:
 Charge =  0 Multiplicity = 1

                          Input orientation:
 ---------------------------------------------------------------------
 Center     Atomic      Atomic             Coordinates (Angstroms)
 Number     Number       Type             X           Y           Z
 ---------------------------------------------------------------------
      1          6           0        0.000000    0.000000    0.667480
      2          6           0        0.000000    0.000000   -0.667480
      3          1           0        0.000000    0.922832    1.237695
      4          1           0        0.000000   -0.922832    1.237695
      5          1           0        0.000000    0.922832   -1.237695
      6          1           0        0.000000   -0.922832   -1.237695
 ---------------------------------------------------------------------

 SCF Done:  E(RHF) =  -77.0726157764     A.U. after    7 cycles

 Alpha  occ. eigenvalues --  -11.02032 -11.01952  -0.97729  -0.74526  -0.60100
 Alpha  occ. eigenvalues --   -0.53167  -0.46146  -0.32479
 Alpha virt. eigenvalues --    0.31847   0.62663   0.69290   0.69399   0.93851
 Alpha virt. eigenvalues --    0.98534

 Mulliken charges:
               1
     1  C   -0.124730
     2  C   -0.124730
     3  H    0.062365
     4  H    0.062365
     5  H    0.062365
     6  H    0.062365
 Sum of Mulliken charges =   0.00000

 Dipole moment (field-independent basis, Debye):
    X=             -0.0000    Y=             -0.0000    Z=              0.0000  Tot=              0.0000
 Quadrupole moment (field-independent basis, Debye-Ang):
   XX=            -13.4802   YY=            -11.8304   ZZ=            -11.9410
   XY=              0.0000   XZ=              0.0000   YZ=             -0.0000

 Summary of Natural Population Analysis:

                                     Natural Population
             Natural    ---------------------------------------------
  Atom No    Charge        Core      Valence    Rydberg      Total
 --------------------------------------------------------------------
    C  1   -0.07317      2.00000     4.07317    0.00000     6.07317
    C  2   -0.07317      2.00000     4.07317    0.00000     6.07317
    H  3    0.03659      0.00000     0.96341    0.00000     0.96341
    H  4    0.03659      0.00000     0.96341    0.00000     0.96341
    H  5    0.03659      0.00000     0.96341    0.00000     0.96341
    H  6    0.03659      0.00000     0.96341    0.00000     0.96341
 ====================================================================
 * Total *  0.00000      4.00000    12.00000    0.00000    16.00000

 Normal termination of Gaussian 16 at Mon Nov 18 15:41:19 2024.
