 Gaussian 16, Revision C.01,
 Gaussian 16:  ES64L-G16RevC.01  3-Jul-2019

 -----------------------------------------------------------------
 #RHF/6-31G* int=nobasistransform Symmetry=None 5D 7F Pop=NBO7Read
 -----------------------------------------------------------------

 ---------
 mol25-NBO
 ---------
 Symbolic Z-matrix:
 Charge =  0 Multiplicity = 1

                          Input orientation:
 ---------------------------------------------------------------------
 Center     Atomic      Atomic             Coordinates (Angstroms)
 Number     Number       Type             X           Y           Z
 ---------------------------------------------------------------------
      1          6           0        0.000000    0.000000    0.762209
      2          6           0        0.000000    0.000000   -0.762209
      3          1           0        0.000000    1.018957    1.157229
      4          1           0       -0.882443   -0.509479    1.157229
      5          1           0        0.882443   -0.509479    1.157229
      6          1           0        0.000000   -1.018957   -1.157229
      7          1           0       -0.882443    0.509479   -1.157229
      8          1           0        0.882443    0.509479   -1.157229
 ---------------------------------------------------------------------

 SCF Done:  E(RHF) =  -79.2280448203     A.U. after    9 cycles

 Alpha  occ. eigenvalues --  -11.20933 -11.20875  -1.01791  -0.84038  -0.59657
 Alpha  occ. eigenvalues --   -0.59657  -0.50984  -0.48586  -0.48586
 Alpha virt. eigenvalues --    0.24188   0.30161   0.31527   0.31527   0.33776
 Alpha virt. eigenvalues --    0.33776   0.41324   0.70689   0.74155   0.74155
 Alpha virt. eigenvalues --    0.84948   0.84948   0.94441   1.15313   1.15313

 Mulliken charges:
               1
     1  C   -0.485449
     2  C   -0.485449
     3  H    0.161816
     4  H    0.161816
     5  H    0.161816
     6  H    0.161816
     7  H    0.161816
     8  H    0.161816
 Sum of Mulliken charges =  -0.00000

 Dipole moment (field-independent basis, Debye):
    X=             -0.0000    Y=              0.0000    Z=             -0.0000  Tot=              0.0000
 Quadrupole moment (field-independent basis, Debye-Ang):
   XX=            -14.9528   YY=            -14.9528   ZZ=            -15.6033
   XY=             -0.0000   XZ=              0.0000   YZ=              0.0000

 Summary of Natural Population Analysis:

                                     Natural Population
             Natural    ---------------------------------------------
  Atom No    Charge        Core      Valence    Rydberg      Total
 --------------------------------------------------------------------
    C  1   -0.63944      1.99999     4.62764    0.01180     6.63944
    C  2   -0.63944      1.99999     4.62764    0.01180     6.63944
    H  3    0.21315      0.00000     0.78573    0.00113     0.78685
    H  4    0.21315      0.00000     0.78573    0.00113     0.78685
    H  5    0.21315      0.00000     0.78573    0.00113     0.78685
    H  6    0.21315      0.00000     0.78573    0.00113     0.78685
    H  7    0.21315      0.00000     0.78573    0.00113     0.78685
    H  8    0.21315      0.00000     0.78573    0.00113     0.78685
 ====================================================================
 * Total *  0.00000      3.99998    13.96965    0.03036    18.00000

 Normal termination of Gaussian 16 at Mon Nov 18 16:40:09 2024.
