 Gaussian 16, Revision C.01,
 Gaussian 16:  ES64L-G16RevC.01  3-Jul-2019

 -----------------------------------------------------------------
 #RHF/STO-3G int=nobasistransform Symmetry=None 5D 7F Pop=NBO7Read
 -----------------------------------------------------------------

 ---------
 mol96-NBO
 ---------
 Symbolic Z-matrix:
 Charge =  0 Multiplicity = 1

                          Input orientation:
 ---------------------------------------------------------------------
 Center     Atomic      Atomic             Coordinates (Angstroms)
 Number     Number       Type             X           Y           Z
 ---------------------------------------------------------------------
      1          6           0        0.000000    0.000000    0.451679
      2          1           0        0.000000    0.000000    1.537586
      3         17           0        0.000000    1.681723   -0.083287
      4         17           0        1.456415   -0.840862   -0.083287
      5         17           0       -1.456415   -0.840862   -0.083287
 ---------------------------------------------------------------------

 SCF Done:  E(RHF) =  -1401.69439458     A.U. after    9 cycles

 Alpha  occ. eigenvalues -- -103.76341-103.76341-103.76341 -11.26745 -10.44278
 Alpha  occ. eigenvalues --  -10.44278 -10.44246  -7.88717  -7.88717  -7.88703
 Alpha  occ. eigenvalues --   -7.88117  -7.88092  -7.88092  -7.88071  -7.88066
 Alpha  occ. eigenvalues --   -7.88066  -1.20518  -1.05226  -1.05226  -0.83270
 Alpha  occ. eigenvalues --   -0.64998  -0.58204  -0.58204  -0.45908  -0.45908
 Alpha  occ. eigenvalues --   -0.42452  -0.42452  -0.42149  -0.41943
 Alpha virt. eigenvalues --    0.25835   0.32782   0.32782   0.59281

 Mulliken charges:
               1
     1  C    0.040095
     2  H    0.157006
     3  Cl  -0.065700
     4  Cl  -0.065700
     5  Cl  -0.065700
 Sum of Mulliken charges =  -0.00000

 Dipole moment (field-independent basis, Debye):
    X=             -0.0000    Y=              0.0000    Z=              1.6228  Tot=              1.6228
 Quadrupole moment (field-independent basis, Debye-Ang):
   XX=            -43.7405   YY=            -43.7405   ZZ=            -39.0913
   XY=              0.0000   XZ=              0.0000   YZ=              0.0000

 Summary of Natural Population Analysis:

                                     Natural Population
             Natural    ---------------------------------------------
  Atom No    Charge        Core      Valence    Rydberg      Total
 --------------------------------------------------------------------
    C  1    0.23280      2.00000     3.76721    0.00000     5.76720
    H  2    0.09574      0.00000     0.90426    0.00000     0.90426
   Cl  3   -0.10951     10.00000     7.10951    0.00000    17.10951
   Cl  4   -0.10951     10.00000     7.10951    0.00000    17.10951
   Cl  5   -0.10951     10.00000     7.10951    0.00000    17.10951
 ====================================================================
 * Total *  0.00000     31.99999    26.00001    0.00000    58.00000

 Normal termination of Gaussian 16 at Mon Nov 18 15:41:29 2024.
