 Gaussian 16, Revision C.01,
 Gaussian 16:  ES64L-G16RevC.01  3-Jul-2019

 -----------------------------------------------------------------
 #RHF/STO-3G int=nobasistransform Symmetry=None 5D 7F Pop=NBO7Read
 -----------------------------------------------------------------

 ---------
 mol55-NBO
 ---------
 Symbolic Z-matrix:
 Charge =  0 Multiplicity = 1

                          Input orientation:
 ---------------------------------------------------------------------
 Center     Atomic      Atomic             Coordinates (Angstroms)
 Number     Number       Type             X           Y           Z
 ---------------------------------------------------------------------
      1          5           0        0.000000    0.000000    0.000000
      2          9           0        0.000000    1.321760    0.000000
      3          9           0        1.144678   -0.660880    0.000000
      4          9           0       -1.144678   -0.660880    0.000000
 ---------------------------------------------------------------------

 SCF Done:  E(RHF) =  -318.661325034     A.U. after    8 cycles

 Alpha  occ. eigenvalues --  -25.95761 -25.95749 -25.95749  -7.55144  -1.55315
 Alpha  occ. eigenvalues --   -1.50556  -1.50556  -0.67909  -0.63105  -0.63105
 Alpha  occ. eigenvalues --   -0.60524  -0.48094  -0.47804  -0.47804  -0.47747
 Alpha  occ. eigenvalues --   -0.47747
 Alpha virt. eigenvalues --    0.33501   0.59720   0.80730   0.80730

 Mulliken charges:
               1
     1  B    0.643609
     2  F   -0.214536
     3  F   -0.214536
     4  F   -0.214536
 Sum of Mulliken charges =  -0.00000

 Dipole moment (field-independent basis, Debye):
    X=              0.0000    Y=              0.0000    Z=             -0.0000  Tot=              0.0000
 Quadrupole moment (field-independent basis, Debye-Ang):
   XX=            -19.0530   YY=            -19.0530   ZZ=            -15.1386
   XY=             -0.0000   XZ=              0.0000   YZ=              0.0000

 Summary of Natural Population Analysis:

                                     Natural Population
             Natural    ---------------------------------------------
  Atom No    Charge        Core      Valence    Rydberg      Total
 --------------------------------------------------------------------
    B  1    0.79600      2.00000     2.20400    0.00000     4.20400
    F  2   -0.26533      2.00000     7.26533    0.00000     9.26533
    F  3   -0.26533      2.00000     7.26533    0.00000     9.26533
    F  4   -0.26533      2.00000     7.26533    0.00000     9.26533
 ====================================================================
 * Total *  0.00000      8.00000    24.00000    0.00000    32.00000

 Normal termination of Gaussian 16 at Mon Nov 18 15:41:23 2024.
