 Gaussian 16, Revision C.01,
 Gaussian 16:  ES64L-G16RevC.01  3-Jul-2019

 -----------------------------------------------------------------
 #RHF/STO-3G int=nobasistransform Symmetry=None 5D 7F Pop=NBO7Read
 -----------------------------------------------------------------

 ---------
 mol97-NBO
 ---------
 Symbolic Z-matrix:
 Charge =  0 Multiplicity = 1

                          Input orientation:
 ---------------------------------------------------------------------
 Center     Atomic      Atomic             Coordinates (Angstroms)
 Number     Number       Type             X           Y           Z
 ---------------------------------------------------------------------
      1          6           0        0.051736    0.704422    0.000000
      2          7           0        0.051736   -0.759616    0.000000
      3          1           0       -0.941735    1.176192    0.000000
      4          1           0       -0.458181   -1.099433    0.812370
      5          1           0       -0.458181   -1.099433   -0.812370
      6          1           0        0.592763    1.056727    0.880670
      7          1           0        0.592763    1.056727   -0.880670
 ---------------------------------------------------------------------

 SCF Done:  E(RHF) =  -94.0318351219     A.U. after   10 cycles

 Alpha  occ. eigenvalues --  -15.31114 -11.06819  -1.12026  -0.85724  -0.61488
 Alpha  occ. eigenvalues --   -0.56320  -0.50879  -0.47924  -0.32351
 Alpha virt. eigenvalues --    0.62356   0.65239   0.66998   0.74051   0.75872
 Alpha virt. eigenvalues --    0.77358

 Mulliken charges:
               1
     1  C   -0.089432
     2  N   -0.394418
     3  H    0.045388
     4  H    0.153588
     5  H    0.153588
     6  H    0.065643
     7  H    0.065643
 Sum of Mulliken charges =  -0.00000

 Dipole moment (field-independent basis, Debye):
    X=             -1.4530    Y=              0.4431    Z=              0.0000  Tot=              1.5191
 Quadrupole moment (field-independent basis, Debye-Ang):
   XX=            -13.4998   YY=            -13.3575   ZZ=            -12.0746
   XY=              1.8102   XZ=             -0.0000   YZ=             -0.0000

 Summary of Natural Population Analysis:

                                     Natural Population
             Natural    ---------------------------------------------
  Atom No    Charge        Core      Valence    Rydberg      Total
 --------------------------------------------------------------------
    C  1   -0.02516      1.99999     4.02517    0.00000     6.02516
    N  2   -0.38268      2.00000     5.38268    0.00000     7.38268
    H  3    0.02347      0.00000     0.97653    0.00000     0.97653
    H  4    0.14930      0.00000     0.85070    0.00000     0.85070
    H  5    0.14930      0.00000     0.85070    0.00000     0.85070
    H  6    0.04288      0.00000     0.95712    0.00000     0.95712
    H  7    0.04288      0.00000     0.95712    0.00000     0.95712
 ====================================================================
 * Total *  0.00000      3.99999    14.00001    0.00000    18.00000

 Normal termination of Gaussian 16 at Mon Nov 18 15:41:29 2024.
