 Gaussian 16, Revision C.01,
 Gaussian 16:  ES64L-G16RevC.01  3-Jul-2019

 ------------------------
 #RHF/6-31G* Pop=NBO7Read
 ------------------------

 -----
 NBO-a
 -----
 Symbolic Z-matrix:
 Charge =  0 Multiplicity = 1

                         Standard orientation:
 ---------------------------------------------------------------------
 Center     Atomic      Atomic             Coordinates (Angstroms)
 Number     Number       Type             X           Y           Z
 ---------------------------------------------------------------------
      1          7           0        0.000000    0.000000    0.301445
      2          3           0        0.000000    0.000000   -1.333312
      3          1           0       -0.000000    0.799559    0.944908
      4          1           0       -0.000000   -0.799559    0.944908
 ---------------------------------------------------------------------

 SCF Done:  E(RHF) =  -63.0373398397     A.U. after   11 cycles

 The electronic state is 1-A1.
 Alpha  occ. eigenvalues --  -15.43575  -2.40006  -0.99003  -0.51675  -0.41611
 Alpha  occ. eigenvalues --   -0.28618
 Alpha virt. eigenvalues --    0.01752   0.07382   0.09112   0.11249   0.20992
 Alpha virt. eigenvalues --    0.23338   0.25888   0.37104   0.40683   0.42963
 Alpha virt. eigenvalues --    0.59937   0.60339   0.63664   0.69975   0.87409

 Mulliken charges:
               1
     1  N   -1.101923
     2  Li   0.514155
     3  H    0.293884
     4  H    0.293884
 Sum of Mulliken charges =   0.00000

 Dipole moment (field-independent basis, Debye):
    X=             -0.0000    Y=              0.0000    Z=             -4.2147  Tot=              4.2147
 Quadrupole moment (field-independent basis, Debye-Ang):
   XX=            -12.5940   YY=             -8.4400   ZZ=             -0.5519
   XY=              0.0000   XZ=             -0.0000   YZ=             -0.0000

 Summary of Natural Population Analysis:

                                     Natural Population
             Natural    ---------------------------------------------
  Atom No    Charge        Core      Valence    Rydberg      Total
 --------------------------------------------------------------------
    N  1   -1.62470      2.00000     6.60704    0.01766     8.62470
   Li  2    0.90902      1.99986     0.02618    0.06494     2.09098
    H  3    0.35784      0.00000     0.64182    0.00035     0.64216
    H  4    0.35784      0.00000     0.64182    0.00035     0.64216
 ====================================================================
 * Total *  0.00000      3.99986     7.91685    0.08329    12.00000

 Normal termination of Gaussian 16 at Wed Jul 24 12:08:03 2024.
