 Gaussian 16, Revision C.01,
 Gaussian 16:  ES64L-G16RevC.01  3-Jul-2019

 -----------------------------------------------------------------
 #RHF/STO-3G int=nobasistransform Symmetry=None 5D 7F Pop=NBO7Read
 -----------------------------------------------------------------

 ---------
 mol22-NBO
 ---------
 Symbolic Z-matrix:
 Charge =  0 Multiplicity = 1

                          Input orientation:
 ---------------------------------------------------------------------
 Center     Atomic      Atomic             Coordinates (Angstroms)
 Number     Number       Type             X           Y           Z
 ---------------------------------------------------------------------
      1          3           0        0.000000    0.000000   -1.174965
      2          9           0        0.000000    0.000000    0.391655
 ---------------------------------------------------------------------

 SCF Done:  E(RHF) =  -105.362153927     A.U. after   10 cycles

 Alpha  occ. eigenvalues --  -25.78876  -2.34907  -1.31392  -0.37274  -0.33776
 Alpha  occ. eigenvalues --   -0.33776
 Alpha virt. eigenvalues --    0.08070   0.22193   0.22193   0.40141

 Mulliken charges:
               1
     1  Li   0.227738
     2  F   -0.227738
 Sum of Mulliken charges =   0.00000

 Dipole moment (field-independent basis, Debye):
    X=              0.0000    Y=              0.0000    Z=             -3.6137  Tot=              3.6137
 Quadrupole moment (field-independent basis, Debye-Ang):
   XX=             -7.7800   YY=             -7.7800   ZZ=             -2.4076
   XY=             -0.0000   XZ=             -0.0000   YZ=              0.0000

 Summary of Natural Population Analysis:

                                     Natural Population
             Natural    ---------------------------------------------
  Atom No    Charge        Core      Valence    Rydberg      Total
 --------------------------------------------------------------------
   Li  1    0.50470      1.99988     0.06829    0.42713     2.49530
    F  2   -0.50470      2.00000     7.50470    0.00000     9.50470
 ====================================================================
 * Total *  0.00000      3.99988     7.57299    0.42713    12.00000

 Normal termination of Gaussian 16 at Mon Nov 18 15:41:20 2024.
