 Gaussian 16, Revision C.01,
 Gaussian 16:  ES64L-G16RevC.01  3-Jul-2019

 -----------------------------------------------------------------
 #RHF/STO-3G int=nobasistransform Symmetry=None 5D 7F Pop=NBO7Read
 -----------------------------------------------------------------

 ----------
 mol119-NBO
 ----------
 Symbolic Z-matrix:
 Charge =  0 Multiplicity = 1

                          Input orientation:
 ---------------------------------------------------------------------
 Center     Atomic      Atomic             Coordinates (Angstroms)
 Number     Number       Type             X           Y           Z
 ---------------------------------------------------------------------
      1          6           0        0.000000    0.437714    0.000000
      2          6           0        1.191923   -0.145087    0.000000
      3          9           0       -1.148929   -0.278332    0.000000
      4          1           0       -0.186445    1.505778    0.000000
      5          1           0        1.291348   -1.222833    0.000000
      6          1           0        2.083924    0.466279    0.000000
 ---------------------------------------------------------------------

 SCF Done:  E(RHF) =  -174.532030170     A.U. after   11 cycles

 Alpha  occ. eigenvalues --  -25.95699 -11.10370 -11.02055  -1.50866  -0.98188
 Alpha  occ. eigenvalues --   -0.75120  -0.63181  -0.57781  -0.53838  -0.49811
 Alpha  occ. eigenvalues --   -0.44215  -0.30758
 Alpha virt. eigenvalues --    0.31404   0.56343   0.65115   0.68729   0.91187
 Alpha virt. eigenvalues --    0.98558

 Mulliken charges:
               1
     1  C    0.081106
     2  C   -0.163220
     3  F   -0.135218
     4  H    0.070387
     5  H    0.075099
     6  H    0.071847
 Sum of Mulliken charges =   0.00000

 Dipole moment (field-independent basis, Debye):
    X=              0.6886    Y=              0.6023    Z=              0.0000  Tot=              0.9148
 Quadrupole moment (field-independent basis, Debye-Ang):
   XX=            -16.3760   YY=            -14.7012   ZZ=            -16.4653
   XY=             -0.4899   XZ=              0.0000   YZ=             -0.0000

 Summary of Natural Population Analysis:

                                     Natural Population
             Natural    ---------------------------------------------
  Atom No    Charge        Core      Valence    Rydberg      Total
 --------------------------------------------------------------------
    C  1    0.18207      1.99999     3.81794    0.00000     5.81793
    C  2   -0.16058      2.00000     4.16058    0.00000     6.16058
    F  3   -0.14937      2.00000     7.14937    0.00000     9.14937
    H  4    0.02520      0.00000     0.97480    0.00000     0.97480
    H  5    0.05289      0.00000     0.94711    0.00000     0.94711
    H  6    0.04979      0.00000     0.95021    0.00000     0.95021
 ====================================================================
 * Total *  0.00000      5.99998    18.00002    0.00000    24.00000

 Normal termination of Gaussian 16 at Mon Nov 18 15:41:48 2024.
