 Gaussian 16, Revision C.01,
 Gaussian 16:  ES64L-G16RevC.01  3-Jul-2019

 -----------------------------------------------------------------
 #RHF/STO-3G int=nobasistransform Symmetry=None 5D 7F Pop=NBO7Read
 -----------------------------------------------------------------

 ---------
 mol91-NBO
 ---------
 Symbolic Z-matrix:
 Charge =  0 Multiplicity = 1

                          Input orientation:
 ---------------------------------------------------------------------
 Center     Atomic      Atomic             Coordinates (Angstroms)
 Number     Number       Type             X           Y           Z
 ---------------------------------------------------------------------
      1          6           0        0.000000    0.000000    0.000000
      2          6           0        0.000000    0.762014    1.265752
      3          6           0        0.000000   -0.762014    1.265752
      4          6           0        0.762014    0.000000   -1.265752
      5          6           0       -0.762014    0.000000   -1.265752
      6          1           0       -0.914023    1.265075    1.568090
      7          1           0        0.914023    1.265075    1.568090
      8          1           0       -0.914023   -1.265075    1.568090
      9          1           0        0.914023   -1.265075    1.568090
     10          1           0        1.265075   -0.914023   -1.568090
     11          1           0        1.265075    0.914023   -1.568090
     12          1           0       -1.265075   -0.914023   -1.568090
     13          1           0       -1.265075    0.914023   -1.568090
 ---------------------------------------------------------------------

 SCF Done:  E(RHF) =  -191.604232665     A.U. after    9 cycles

 Alpha  occ. eigenvalues --  -11.04364 -11.03881 -11.03881 -11.03873 -11.03871
 Alpha  occ. eigenvalues --   -1.12675  -1.01672  -0.78752  -0.78752  -0.70195
 Alpha  occ. eigenvalues --   -0.61182  -0.60863  -0.60863  -0.48776  -0.47376
 Alpha  occ. eigenvalues --   -0.44797  -0.37355  -0.37355  -0.34993
 Alpha virt. eigenvalues --    0.46425   0.46425   0.64474   0.64474   0.65949
 Alpha virt. eigenvalues --    0.68031   0.69357   0.74487   0.74487   0.83385
 Alpha virt. eigenvalues --    0.83385   0.83538   0.85363   0.94026

 Mulliken charges:
               1
     1  C   -0.019394
     2  C   -0.132154
     3  C   -0.132154
     4  C   -0.132154
     5  C   -0.132154
     6  H    0.068501
     7  H    0.068501
     8  H    0.068501
     9  H    0.068501
    10  H    0.068501
    11  H    0.068501
    12  H    0.068501
    13  H    0.068501
 Sum of Mulliken charges =  -0.00000

 Dipole moment (field-independent basis, Debye):
    X=             -0.0000    Y=             -0.0000    Z=             -0.0000  Tot=              0.0000
 Quadrupole moment (field-independent basis, Debye-Ang):
   XX=            -29.4578   YY=            -29.4578   ZZ=            -30.8987
   XY=              0.0000   XZ=             -0.0000   YZ=              0.0000

 Summary of Natural Population Analysis:

                                     Natural Population
             Natural    ---------------------------------------------
  Atom No    Charge        Core      Valence    Rydberg      Total
 --------------------------------------------------------------------
    C  1   -0.00146      2.00000     4.00146    0.00000     6.00146
    C  2   -0.09719      2.00000     4.09719    0.00000     6.09719
    C  3   -0.09719      2.00000     4.09719    0.00000     6.09719
    C  4   -0.09719      2.00000     4.09719    0.00000     6.09719
    C  5   -0.09719      2.00000     4.09719    0.00000     6.09719
    H  6    0.04878      0.00000     0.95122    0.00000     0.95122
    H  7    0.04878      0.00000     0.95122    0.00000     0.95122
    H  8    0.04878      0.00000     0.95122    0.00000     0.95122
    H  9    0.04878      0.00000     0.95122    0.00000     0.95122
    H 10    0.04878      0.00000     0.95122    0.00000     0.95122
    H 11    0.04878      0.00000     0.95122    0.00000     0.95122
    H 12    0.04878      0.00000     0.95122    0.00000     0.95122
    H 13    0.04878      0.00000     0.95122    0.00000     0.95122
 ====================================================================
 * Total *  0.00000      9.99999    28.00001    0.00000    38.00000

 Normal termination of Gaussian 16 at Mon Nov 18 15:41:43 2024.
