 Gaussian 16, Revision C.01,
 Gaussian 16:  ES64L-G16RevC.01  3-Jul-2019

 -----------------------------------------------------------------
 #RHF/STO-3G int=nobasistransform Symmetry=None 5D 7F Pop=NBO7Read
 -----------------------------------------------------------------

 ----------
 mol127-NBO
 ----------
 Symbolic Z-matrix:
 Charge =  0 Multiplicity = 1

                          Input orientation:
 ---------------------------------------------------------------------
 Center     Atomic      Atomic             Coordinates (Angstroms)
 Number     Number       Type             X           Y           Z
 ---------------------------------------------------------------------
      1          6           0        0.892629   -0.642344    0.000000
      2          6           0        2.365587   -0.245168    0.000000
      3          6           0        0.000000    0.582921    0.000000
      4          1           0        0.663731   -1.252117    0.879201
      5          1           0        0.663731   -1.252117   -0.879201
      6          1           0        3.005476   -1.130924    0.000000
      7         17           0       -1.732810    0.139743    0.000000
      8          1           0        2.614882    0.347704   -0.884730
      9          1           0        2.614882    0.347704    0.884730
     10          1           0        0.172881    1.195836    0.886460
     11          1           0        0.172881    1.195836   -0.886460
 ---------------------------------------------------------------------

 SCF Done:  E(RHF) =  -570.885590522     A.U. after   10 cycles

 Alpha  occ. eigenvalues -- -103.67188 -11.12184 -11.07236 -11.05535 -10.35690
 Alpha  occ. eigenvalues --   -7.80099  -7.79550  -7.79547  -1.08851  -0.99646
 Alpha  occ. eigenvalues --   -0.86797  -0.78864  -0.64073  -0.57507  -0.54847
 Alpha  occ. eigenvalues --   -0.54201  -0.48179  -0.46670  -0.44649  -0.37318
 Alpha  occ. eigenvalues --   -0.37125
 Alpha virt. eigenvalues --    0.37279   0.58763   0.61548   0.65195   0.68326
 Alpha virt. eigenvalues --    0.71115   0.72620   0.74102   0.76281   0.78742

 Mulliken charges:
               1
     1  C   -0.092109
     2  C   -0.173640
     3  C   -0.058714
     4  H    0.070371
     5  H    0.070371
     6  H    0.066327
     7  Cl  -0.186060
     8  H    0.060357
     9  H    0.060357
    10  H    0.091371
    11  H    0.091371
 Sum of Mulliken charges =  -0.00000

 Dipole moment (field-independent basis, Debye):
    X=              2.5063    Y=              0.3906    Z=              0.0000  Tot=              2.5366
 Quadrupole moment (field-independent basis, Debye-Ang):
   XX=            -35.0652   YY=            -30.4663   ZZ=            -30.6500
   XY=              0.1536   XZ=              0.0000   YZ=             -0.0000

 Summary of Natural Population Analysis:

                                     Natural Population
             Natural    ---------------------------------------------
  Atom No    Charge        Core      Valence    Rydberg      Total
 --------------------------------------------------------------------
    C  1   -0.06438      2.00000     4.06438    0.00000     6.06438
    C  2   -0.13062      2.00000     4.13063    0.00000     6.13062
    C  3    0.04885      2.00000     3.95116    0.00000     5.95115
    H  4    0.04971      0.00000     0.95029    0.00000     0.95029
    H  5    0.04971      0.00000     0.95029    0.00000     0.95029
    H  6    0.05006      0.00000     0.94994    0.00000     0.94994
   Cl  7   -0.20548     10.00000     7.20548    0.00000    17.20548
    H  8    0.04422      0.00000     0.95578    0.00000     0.95578
    H  9    0.04422      0.00000     0.95578    0.00000     0.95578
    H 10    0.05686      0.00000     0.94314    0.00000     0.94314
    H 11    0.05686      0.00000     0.94314    0.00000     0.94314
 ====================================================================
 * Total *  0.00000     15.99999    26.00001    0.00000    42.00000

 Normal termination of Gaussian 16 at Mon Nov 18 15:41:48 2024.
