 Gaussian 16, Revision C.01,
 Gaussian 16:  ES64L-G16RevC.01  3-Jul-2019

 -----------------------------------------------------------------
 #RHF/6-31G* int=nobasistransform Symmetry=None 5D 7F Pop=NBO7Read
 -----------------------------------------------------------------

 ----------
 mol118-NBO
 ----------
 Symbolic Z-matrix:
 Charge =  0 Multiplicity = 1

                          Input orientation:
 ---------------------------------------------------------------------
 Center     Atomic      Atomic             Coordinates (Angstroms)
 Number     Number       Type             X           Y           Z
 ---------------------------------------------------------------------
      1          6           0        0.000000    1.366668   -0.513713
      2         16           0        0.000000    0.000000    0.664273
      3          6           0        0.000000   -1.366668   -0.513713
      4          1           0        0.000000    2.296687    0.057284
      5          1           0        0.891644    1.345680   -1.144596
      6          1           0       -0.891644    1.345680   -1.144596
      7          1           0        0.000000   -2.296687    0.057284
      8          1           0       -0.891644   -1.345680   -1.144596
      9          1           0        0.891644   -1.345680   -1.144596
 ---------------------------------------------------------------------

 SCF Done:  E(RHF) =  -476.732784248     A.U. after   11 cycles

 Alpha  occ. eigenvalues --  -91.92540 -11.24734 -11.24732  -8.94116  -6.62337
 Alpha  occ. eigenvalues --   -6.62195  -6.61980  -1.06348  -0.95160  -0.80747
 Alpha  occ. eigenvalues --   -0.60392  -0.60279  -0.57768  -0.56400  -0.49479
 Alpha  occ. eigenvalues --   -0.43500  -0.33435
 Alpha virt. eigenvalues --    0.19405   0.22693   0.25475   0.28261   0.28967
 Alpha virt. eigenvalues --    0.31957   0.31995   0.33708   0.55275   0.57619
 Alpha virt. eigenvalues --    0.57682   0.57767   0.65081   0.72262   0.76510

 Mulliken charges:
               1
     1  C   -0.647900
     2  S    0.129949
     3  C   -0.647900
     4  H    0.201435
     5  H    0.190745
     6  H    0.190745
     7  H    0.201435
     8  H    0.190745
     9  H    0.190745
 Sum of Mulliken charges =  -0.00000

 Dipole moment (field-independent basis, Debye):
    X=              0.0000    Y=             -0.0000    Z=             -1.7606  Tot=              1.7606
 Quadrupole moment (field-independent basis, Debye-Ang):
   XX=            -28.9871   YY=            -24.2929   ZZ=            -28.7669
   XY=              0.0000   XZ=             -0.0000   YZ=             -0.0000

 Summary of Natural Population Analysis:

                                     Natural Population
             Natural    ---------------------------------------------
  Atom No    Charge        Core      Valence    Rydberg      Total
 --------------------------------------------------------------------
    C  1   -0.80451      1.99999     4.79077    0.01375     6.80451
    S  2    0.22326      9.99998     5.72423    0.05252    15.77674
    C  3   -0.80451      1.99999     4.79077    0.01375     6.80451
    H  4    0.24251      0.00000     0.75668    0.00082     0.75749
    H  5    0.22519      0.00000     0.77253    0.00228     0.77481
    H  6    0.22519      0.00000     0.77253    0.00228     0.77481
    H  7    0.24251      0.00000     0.75668    0.00082     0.75749
    H  8    0.22519      0.00000     0.77253    0.00228     0.77481
    H  9    0.22519      0.00000     0.77253    0.00228     0.77481
 ====================================================================
 * Total *  0.00000     13.99997    19.90925    0.09078    34.00000

 Normal termination of Gaussian 16 at Mon Nov 18 16:41:12 2024.
