 Gaussian 16, Revision C.01,
 Gaussian 16:  ES64L-G16RevC.01  3-Jul-2019

 -----------------------------------------------------------------
 #RHF/STO-3G int=nobasistransform Symmetry=None 5D 7F Pop=NBO7Read
 -----------------------------------------------------------------

 ---------
 mol50-NBO
 ---------
 Symbolic Z-matrix:
 Charge =  0 Multiplicity = 1

                          Input orientation:
 ---------------------------------------------------------------------
 Center     Atomic      Atomic             Coordinates (Angstroms)
 Number     Number       Type             X           Y           Z
 ---------------------------------------------------------------------
      1         14           0        0.000000    0.000000    1.167683
      2         14           0        0.000000    0.000000   -1.167683
      3          1           0        0.000000    1.393286    1.686020
      4          1           0       -1.206621   -0.696643    1.686020
      5          1           0        1.206621   -0.696643    1.686020
      6          1           0        0.000000   -1.393286   -1.686020
      7          1           0       -1.206621    0.696643   -1.686020
      8          1           0        1.206621    0.696643   -1.686020
 ---------------------------------------------------------------------

 SCF Done:  E(RHF) =  -574.693793539     A.U. after    7 cycles

 Alpha  occ. eigenvalues --  -67.95130 -67.95120  -5.93991  -5.93857  -3.96572
 Alpha  occ. eigenvalues --   -3.96473  -3.96473  -3.96372  -3.96309  -3.96309
 Alpha  occ. eigenvalues --   -0.71020  -0.62887  -0.43281  -0.43281  -0.40125
 Alpha  occ. eigenvalues --   -0.40125  -0.32184
 Alpha virt. eigenvalues --    0.40642   0.48790   0.48790   0.54283   0.55054
 Alpha virt. eigenvalues --    0.61674   0.61674

 Mulliken charges:
               1
     1  Si   0.469959
     2  Si   0.469959
     3  H   -0.156653
     4  H   -0.156653
     5  H   -0.156653
     6  H   -0.156653
     7  H   -0.156653
     8  H   -0.156653
 Sum of Mulliken charges =  -0.00000

 Dipole moment (field-independent basis, Debye):
    X=             -0.0000    Y=             -0.0000    Z=              0.0000  Tot=              0.0000
 Quadrupole moment (field-independent basis, Debye-Ang):
   XX=            -28.2156   YY=            -28.2156   ZZ=            -29.3270
   XY=             -0.0000   XZ=             -0.0000   YZ=              0.0000

 Summary of Natural Population Analysis:

                                     Natural Population
             Natural    ---------------------------------------------
  Atom No    Charge        Core      Valence    Rydberg      Total
 --------------------------------------------------------------------
   Si  1    0.53756      9.99996     3.46248    0.00000    13.46244
   Si  2    0.53756      9.99996     3.46248    0.00000    13.46244
    H  3   -0.17919      0.00000     1.17919    0.00000     1.17919
    H  4   -0.17919      0.00000     1.17919    0.00000     1.17919
    H  5   -0.17919      0.00000     1.17919    0.00000     1.17919
    H  6   -0.17919      0.00000     1.17919    0.00000     1.17919
    H  7   -0.17919      0.00000     1.17919    0.00000     1.17919
    H  8   -0.17919      0.00000     1.17919    0.00000     1.17919
 ====================================================================
 * Total *  0.00000     19.99992    14.00008    0.00000    34.00000

 Normal termination of Gaussian 16 at Mon Nov 18 15:41:21 2024.
