 Gaussian 16, Revision C.01,
 Gaussian 16:  ES64L-G16RevC.01  3-Jul-2019

 ------------------------
 #RHF/6-31G* Pop=NBO7Read
 ------------------------

 -----
 NBO-a
 -----
 Symbolic Z-matrix:
 Charge =  0 Multiplicity = 1

                         Standard orientation:
 ---------------------------------------------------------------------
 Center     Atomic      Atomic             Coordinates (Angstroms)
 Number     Number       Type             X           Y           Z
 ---------------------------------------------------------------------
      1          6           0       -0.000000    0.000000   -0.627546
      2          1           0       -0.000000    1.026393   -1.013434
      3          1           0       -0.888882   -0.513197   -1.013434
      4          1           0        0.888882   -0.513197   -1.013434
      5          9           0        0.000000   -0.000000    0.756176
 ---------------------------------------------------------------------

 SCF Done:  E(RHF) =  -139.033295700     A.U. after   10 cycles

 The electronic state is 1-A1.
 Alpha  occ. eigenvalues --  -26.27333 -11.30783  -1.57548  -0.95012  -0.68450
 Alpha  occ. eigenvalues --   -0.68450  -0.66804  -0.52261  -0.52261
 Alpha virt. eigenvalues --    0.24778   0.30969   0.31553   0.31553   0.74411
 Alpha virt. eigenvalues --    0.74411   0.77428   1.10485   1.10485   1.11110
 Alpha virt. eigenvalues --    1.19040   1.44550   1.57831   1.57831   1.80301

 Mulliken charges:
               1
     1  C   -0.066526
     2  H    0.156097
     3  H    0.156097
     4  H    0.156097
     5  F   -0.401766
 Sum of Mulliken charges =  -0.00000

 Dipole moment (field-independent basis, Debye):
    X=             -0.0000    Y=             -0.0000    Z=             -2.0626  Tot=              2.0626
 Quadrupole moment (field-independent basis, Debye-Ang):
   XX=            -11.7675   YY=            -11.7675   ZZ=            -12.0609
   XY=              0.0000   XZ=              0.0000   YZ=              0.0000

 Summary of Natural Population Analysis:

                                     Natural Population
             Natural    ---------------------------------------------
  Atom No    Charge        Core      Valence    Rydberg      Total
 --------------------------------------------------------------------
    C  1   -0.10115      1.99999     4.08289    0.01826     6.10115
    H  2    0.17637      0.00000     0.82285    0.00079     0.82363
    H  3    0.17637      0.00000     0.82285    0.00079     0.82363
    H  4    0.17637      0.00000     0.82285    0.00079     0.82363
    F  5   -0.42795      2.00000     7.41926    0.00870     9.42795
 ====================================================================
 * Total *  0.00000      3.99999    13.97069    0.02932    18.00000

 Normal termination of Gaussian 16 at Wed Jul 24 12:08:02 2024.
