 Gaussian 16, Revision C.01,
 Gaussian 16:  ES64L-G16RevC.01  3-Jul-2019

 -----------------------------------------------------------------
 #RHF/STO-3G int=nobasistransform Symmetry=None 5D 7F Pop=NBO7Read
 -----------------------------------------------------------------

 ---------
 mol66-NBO
 ---------
 Symbolic Z-matrix:
 Charge =  0 Multiplicity = 1

                          Input orientation:
 ---------------------------------------------------------------------
 Center     Atomic      Atomic             Coordinates (Angstroms)
 Number     Number       Type             X           Y           Z
 ---------------------------------------------------------------------
      1          7           0        0.000000    0.000000   -1.231969
      2          7           0        0.000000    0.000000   -0.060851
      3          8           0        0.000000    0.000000    1.131218
 ---------------------------------------------------------------------

 SCF Done:  E(RHF) =  -181.196200281     A.U. after   10 cycles

 Alpha  occ. eigenvalues --  -20.35886 -15.68942 -15.47240  -1.52451  -1.32420
 Alpha  occ. eigenvalues --   -0.73202  -0.68884  -0.68884  -0.58547  -0.35857
 Alpha  occ. eigenvalues --   -0.35857
 Alpha virt. eigenvalues --    0.23693   0.23693   0.54087   1.17316

 Mulliken charges:
               1
     1  N   -0.027959
     2  N    0.168791
     3  O   -0.140832
 Sum of Mulliken charges =  -0.00000

 Dipole moment (field-independent basis, Debye):
    X=              0.0000    Y=              0.0000    Z=             -0.0876  Tot=              0.0876
 Quadrupole moment (field-independent basis, Debye-Ang):
   XX=            -13.7657   YY=            -13.7657   ZZ=            -18.3794
   XY=             -0.0000   XZ=              0.0000   YZ=             -0.0000

 Summary of Natural Population Analysis:

                                     Natural Population
             Natural    ---------------------------------------------
  Atom No    Charge        Core      Valence    Rydberg      Total
 --------------------------------------------------------------------
    N  1   -0.05761      2.00000     5.05761    0.00000     7.05761
    N  2    0.24822      2.00000     4.75178    0.00000     6.75178
    O  3   -0.19061      2.00000     6.19061    0.00000     8.19061
 ====================================================================
 * Total *  0.00000      5.99999    16.00001    0.00000    22.00000

 Normal termination of Gaussian 16 at Mon Nov 18 15:41:18 2024.
