 Gaussian 16, Revision C.01,
 Gaussian 16:  ES64L-G16RevC.01  3-Jul-2019

 -----------------------------------------------------------------
 #RHF/6-31G* int=nobasistransform Symmetry=None 5D 7F Pop=NBO7Read
 -----------------------------------------------------------------

 ---------
 mol97-NBO
 ---------
 Symbolic Z-matrix:
 Charge =  0 Multiplicity = 1

                          Input orientation:
 ---------------------------------------------------------------------
 Center     Atomic      Atomic             Coordinates (Angstroms)
 Number     Number       Type             X           Y           Z
 ---------------------------------------------------------------------
      1          6           0        0.051736    0.704422    0.000000
      2          7           0        0.051736   -0.759616    0.000000
      3          1           0       -0.941735    1.176192    0.000000
      4          1           0       -0.458181   -1.099433    0.812370
      5          1           0       -0.458181   -1.099433   -0.812370
      6          1           0        0.592763    1.056727    0.880670
      7          1           0        0.592763    1.056727   -0.880670
 ---------------------------------------------------------------------

 SCF Done:  E(RHF) =  -95.2084184488     A.U. after   11 cycles

 Alpha  occ. eigenvalues --  -15.53705 -11.23808  -1.16583  -0.89270  -0.65794
 Alpha  occ. eigenvalues --   -0.60085  -0.55149  -0.51465  -0.38771
 Alpha virt. eigenvalues --    0.22706   0.28643   0.30599   0.32908   0.33417
 Alpha virt. eigenvalues --    0.41636   0.76762   0.77644   0.79356   0.96951
 Alpha virt. eigenvalues --    0.99820   1.05859   1.13767   1.18890   1.20989

 Mulliken charges:
               1
     1  C   -0.298515
     2  N   -0.849035
     3  H    0.136903
     4  H    0.335995
     5  H    0.335995
     6  H    0.169329
     7  H    0.169329
 Sum of Mulliken charges =   0.00000

 Dipole moment (field-independent basis, Debye):
    X=             -1.5246    Y=              0.4663    Z=              0.0000  Tot=              1.5943
 Quadrupole moment (field-independent basis, Debye-Ang):
   XX=            -14.8324   YY=            -14.3076   ZZ=            -12.5562
   XY=              2.3106   XZ=             -0.0000   YZ=             -0.0000

 Summary of Natural Population Analysis:

                                     Natural Population
             Natural    ---------------------------------------------
  Atom No    Charge        Core      Valence    Rydberg      Total
 --------------------------------------------------------------------
    C  1   -0.41279      1.99999     4.39660    0.01619     6.41279
    N  2   -0.91747      1.99999     5.89849    0.01899     7.91747
    H  3    0.17681      0.00000     0.82152    0.00167     0.82319
    H  4    0.37139      0.00000     0.62699    0.00162     0.62861
    H  5    0.37139      0.00000     0.62699    0.00162     0.62861
    H  6    0.20533      0.00000     0.79351    0.00116     0.79467
    H  7    0.20533      0.00000     0.79351    0.00116     0.79467
 ====================================================================
 * Total *  0.00000      3.99998    13.95760    0.04242    18.00000

 Normal termination of Gaussian 16 at Mon Nov 18 16:40:41 2024.
