 Gaussian 16, Revision C.01,
 Gaussian 16:  ES64L-G16RevC.01  3-Jul-2019

 -----------------------
 #RHF/4-31G Pop=NBO7Read
 -----------------------

 -----
 NBO-a
 -----
 Symbolic Z-matrix:
 Charge =  0 Multiplicity = 1

                         Standard orientation:
 ---------------------------------------------------------------------
 Center     Atomic      Atomic             Coordinates (Angstroms)
 Number     Number       Type             X           Y           Z
 ---------------------------------------------------------------------
      1          6           0        0.687742   -0.000000   -0.007229
      2          1           0        1.113617   -0.882096   -0.470788
      3          1           0        1.113618    0.882098   -0.470787
      4          1           0        1.009090   -0.000001    1.033227
      5          5           0       -0.882133    0.000000   -0.011952
      6          1           0       -1.476056   -0.998978    0.005741
      7          1           0       -1.476056    0.998978    0.005741
 ---------------------------------------------------------------------

 SCF Done:  E(RHF) =  -65.3477240529     A.U. after   11 cycles

 The electronic state is 1-A.
 Alpha  occ. eigenvalues --  -11.17278  -7.57990  -0.95217  -0.67344  -0.57131
 Alpha  occ. eigenvalues --   -0.54800  -0.47124  -0.46334
 Alpha virt. eigenvalues --    0.11771   0.26269   0.30771   0.30999   0.35040
 Alpha virt. eigenvalues --    0.39783   0.41658   0.70692   0.72514   0.78496
 Alpha virt. eigenvalues --    0.83968   0.90347   1.05024   1.08207   1.22175

 Mulliken charges:
               1
     1  C   -0.747314
     2  H    0.163954
     3  H    0.163954
     4  H    0.169763
     5  B    0.428037
     6  H   -0.089197
     7  H   -0.089197
 Sum of Mulliken charges =   0.00000

 Dipole moment (field-independent basis, Debye):
    X=              0.3890    Y=             -0.0000    Z=              0.0868  Tot=              0.3986
 Quadrupole moment (field-independent basis, Debye-Ang):
   XX=            -16.5164   YY=            -15.9031   ZZ=            -13.4544
   XY=             -0.0000   XZ=              0.1366   YZ=              0.0000

 Summary of Natural Population Analysis:

                                     Natural Population
             Natural    ---------------------------------------------
  Atom No    Charge        Core      Valence    Rydberg      Total
 --------------------------------------------------------------------
    C  1   -1.09514      1.99993     5.09239    0.00282     7.09514
    H  2    0.25111      0.00000     0.74804    0.00085     0.74889
    H  3    0.25111      0.00000     0.74804    0.00085     0.74889
    H  4    0.26368      0.00000     0.73577    0.00055     0.73632
    B  5    0.54689      1.99997     2.45012    0.00302     4.45311
    H  6   -0.10883      0.00000     1.10874    0.00009     1.10883
    H  7   -0.10883      0.00000     1.10874    0.00009     1.10883
 ====================================================================
 * Total *  0.00000      3.99989    11.99183    0.00827    16.00000

 Normal termination of Gaussian 16 at Wed Jul 24 13:56:57 2024.
