 Gaussian 16, Revision C.01,
 Gaussian 16:  ES64L-G16RevC.01  3-Jul-2019

 -----------------------------------------------------------------
 #RHF/STO-3G int=nobasistransform Symmetry=None 5D 7F Pop=NBO7Read
 -----------------------------------------------------------------

 ---------
 mol88-NBO
 ---------
 Symbolic Z-matrix:
 Charge =  0 Multiplicity = 1

                          Input orientation:
 ---------------------------------------------------------------------
 Center     Atomic      Atomic             Coordinates (Angstroms)
 Number     Number       Type             X           Y           Z
 ---------------------------------------------------------------------
      1          6           0        0.000000    0.000000    1.458807
      2          6           0        0.000000    0.000000    0.119588
      3          1           0        0.000000    0.924302    2.028409
      4          1           0        0.000000   -0.924302    2.028409
      5          6           0        0.000000    1.272683   -0.678803
      6          1           0        0.000000    2.153042   -0.031588
      7          1           0        0.880211    1.323542   -1.329592
      8          1           0       -0.880211    1.323542   -1.329592
      9          6           0        0.000000   -1.272683   -0.678803
     10          1           0        0.000000   -2.153042   -0.031588
     11          1           0       -0.880211   -1.323542   -1.329592
     12          1           0        0.880211   -1.323542   -1.329592
 ---------------------------------------------------------------------

 SCF Done:  E(RHF) =  -154.243565413     A.U. after   10 cycles

 Alpha  occ. eigenvalues --  -11.04049 -11.04043 -11.03162 -10.99712  -1.03801
 Alpha  occ. eigenvalues --   -0.89979  -0.87711  -0.67405  -0.57956  -0.56938
 Alpha  occ. eigenvalues --   -0.55777  -0.50566  -0.48613  -0.46447  -0.43059
 Alpha  occ. eigenvalues --   -0.29137
 Alpha virt. eigenvalues --    0.31948   0.61294   0.63969   0.69442   0.70189
 Alpha virt. eigenvalues --    0.71076   0.73523   0.74889   0.75170   0.76204
 Alpha virt. eigenvalues --    0.94520   1.04799

 Mulliken charges:
               1
     1  C   -0.144374
     2  C    0.028638
     3  H    0.053170
     4  H    0.053170
     5  C   -0.182409
     6  H    0.063138
     7  H    0.061984
     8  H    0.061984
     9  C   -0.182409
    10  H    0.063138
    11  H    0.061984
    12  H    0.061984
 Sum of Mulliken charges =  -0.00000

 Dipole moment (field-independent basis, Debye):
    X=             -0.0000    Y=              0.0000    Z=             -0.4052  Tot=              0.4052
 Quadrupole moment (field-independent basis, Debye-Ang):
   XX=            -25.6908   YY=            -24.6252   ZZ=            -24.8713
   XY=             -0.0000   XZ=              0.0000   YZ=             -0.0000

 Summary of Natural Population Analysis:

                                     Natural Population
             Natural    ---------------------------------------------
  Atom No    Charge        Core      Valence    Rydberg      Total
 --------------------------------------------------------------------
    C  1   -0.11319      2.00000     4.11319    0.00000     6.11319
    C  2    0.07362      2.00000     3.92638    0.00000     5.92638
    H  3    0.02968      0.00000     0.97032    0.00000     0.97032
    H  4    0.02968      0.00000     0.97032    0.00000     0.97032
    C  5   -0.15505      2.00000     4.15505    0.00000     6.15505
    H  6    0.04842      0.00000     0.95158    0.00000     0.95158
    H  7    0.04837      0.00000     0.95163    0.00000     0.95163
    H  8    0.04837      0.00000     0.95163    0.00000     0.95163
    C  9   -0.15505      2.00000     4.15505    0.00000     6.15505
    H 10    0.04842      0.00000     0.95158    0.00000     0.95158
    H 11    0.04837      0.00000     0.95163    0.00000     0.95163
    H 12    0.04837      0.00000     0.95163    0.00000     0.95163
 ====================================================================
 * Total *  0.00000      7.99999    24.00001    0.00000    32.00000

 Normal termination of Gaussian 16 at Mon Nov 18 15:41:42 2024.
