 Gaussian 16, Revision C.01,
 Gaussian 16:  ES64L-G16RevC.01  3-Jul-2019

 -----------------------------------------------------------------
 #RHF/6-31G* int=nobasistransform Symmetry=None 5D 7F Pop=NBO7Read
 -----------------------------------------------------------------

 ---------
 mol11-NBO
 ---------
 Symbolic Z-matrix:
 Charge =  0 Multiplicity = 1

                          Input orientation:
 ---------------------------------------------------------------------
 Center     Atomic      Atomic             Coordinates (Angstroms)
 Number     Number       Type             X           Y           Z
 ---------------------------------------------------------------------
      1          8           0        0.000000    0.000000    0.119262
      2          1           0        0.000000    0.763239   -0.477047
      3          1           0        0.000000   -0.763239   -0.477047
 ---------------------------------------------------------------------

 SCF Done:  E(RHF) =  -76.0084268014     A.U. after   10 cycles

 Alpha  occ. eigenvalues --  -20.55741  -1.33598  -0.69959  -0.56993  -0.49702
 Alpha virt. eigenvalues --    0.21204   0.30137   1.01520   1.15255   1.16818
 Alpha virt. eigenvalues --    1.19937   1.37716   1.65938   2.02179   2.03666
 Alpha virt. eigenvalues --    2.06897   2.61645   2.92653

 Mulliken charges:
               1
     1  O   -0.894953
     2  H    0.447477
     3  H    0.447477
 Sum of Mulliken charges =  -0.00000

 Dipole moment (field-independent basis, Debye):
    X=             -0.0000    Y=             -0.0000    Z=             -2.2374  Tot=              2.2374
 Quadrupole moment (field-independent basis, Debye-Ang):
   XX=             -7.2583   YY=             -4.1193   ZZ=             -5.9542
   XY=             -0.0000   XZ=             -0.0000   YZ=             -0.0000

 Summary of Natural Population Analysis:

                                     Natural Population
             Natural    ---------------------------------------------
  Atom No    Charge        Core      Valence    Rydberg      Total
 --------------------------------------------------------------------
    O  1   -0.96120      1.99999     6.94748    0.01373     8.96120
    H  2    0.48060      0.00000     0.51828    0.00112     0.51940
    H  3    0.48060      0.00000     0.51828    0.00112     0.51940
 ====================================================================
 * Total *  0.00000      1.99999     7.98404    0.01597    10.00000

 Normal termination of Gaussian 16 at Mon Nov 18 16:40:08 2024.
