 Gaussian 16, Revision C.01,
 Gaussian 16:  ES64L-G16RevC.01  3-Jul-2019

 -----------------------------------------------------------------
 #RHF/6-31G* int=nobasistransform Symmetry=None 5D 7F Pop=NBO7Read
 -----------------------------------------------------------------

 ---------
 mol19-NBO
 ---------
 Symbolic Z-matrix:
 Charge =  0 Multiplicity = 1

                          Input orientation:
 ---------------------------------------------------------------------
 Center     Atomic      Atomic             Coordinates (Angstroms)
 Number     Number       Type             X           Y           Z
 ---------------------------------------------------------------------
      1         16           0        0.000000    0.000000    0.102135
      2          1           0        0.000000    0.974269   -0.817083
      3          1           0        0.000000   -0.974269   -0.817083
 ---------------------------------------------------------------------

 SCF Done:  E(RHF) =  -398.665546453     A.U. after    9 cycles

 Alpha  occ. eigenvalues --  -91.94477  -8.96442  -6.64646  -6.64523  -6.64237
 Alpha  occ. eigenvalues --   -0.98533  -0.59607  -0.49894  -0.38403
 Alpha virt. eigenvalues --    0.16844   0.20698   0.48355   0.49084   0.51498
 Alpha virt. eigenvalues --    0.53599   0.89702   0.98605   1.00817   1.02288
 Alpha virt. eigenvalues --    1.02847   1.31945   1.51916

 Mulliken charges:
               1
     1  S   -0.223052
     2  H    0.111526
     3  H    0.111526
 Sum of Mulliken charges =  -0.00000

 Dipole moment (field-independent basis, Debye):
    X=              0.0000    Y=              0.0000    Z=             -1.3946  Tot=              1.3946
 Quadrupole moment (field-independent basis, Debye-Ang):
   XX=            -16.8108   YY=            -12.3365   ZZ=            -13.8380
   XY=             -0.0000   XZ=              0.0000   YZ=             -0.0000

 Summary of Natural Population Analysis:

                                     Natural Population
             Natural    ---------------------------------------------
  Atom No    Charge        Core      Valence    Rydberg      Total
 --------------------------------------------------------------------
    S  1   -0.27025      9.99999     6.22120    0.04906    16.27025
    H  2    0.13512      0.00000     0.86461    0.00027     0.86488
    H  3    0.13512      0.00000     0.86461    0.00027     0.86488
 ====================================================================
 * Total *  0.00000      9.99999     7.95042    0.04959    18.00000

 Normal termination of Gaussian 16 at Mon Nov 18 16:40:07 2024.
