 Gaussian 16, Revision C.01,
 Gaussian 16:  ES64L-G16RevC.01  3-Jul-2019

 -----------------------------------------------------------------
 #RHF/6-31G* int=nobasistransform Symmetry=None 5D 7F Pop=NBO7Read
 -----------------------------------------------------------------

 ---------
 mol77-NBO
 ---------
 Symbolic Z-matrix:
 Charge =  0 Multiplicity = 1

                          Input orientation:
 ---------------------------------------------------------------------
 Center     Atomic      Atomic             Coordinates (Angstroms)
 Number     Number       Type             X           Y           Z
 ---------------------------------------------------------------------
      1          6           0        0.000000    0.000000    0.000000
      2          6           0        0.000000    0.000000    1.311190
      3          6           0        0.000000    0.000000   -1.311190
      4          1           0        0.000000    0.926778    1.876642
      5          1           0        0.000000   -0.926778    1.876642
      6          1           0        0.926778    0.000000   -1.876642
      7          1           0       -0.926778    0.000000   -1.876642
 ---------------------------------------------------------------------

 SCF Done:  E(RHF) =  -115.859721604     A.U. after   10 cycles

 Alpha  occ. eigenvalues --  -11.26114 -11.23374 -11.23365  -1.06619  -0.95111
 Alpha  occ. eigenvalues --   -0.71154  -0.62190  -0.60132  -0.60132  -0.37112
 Alpha  occ. eigenvalues --   -0.37112
 Alpha virt. eigenvalues --    0.17742   0.17742   0.27157   0.28534   0.36675
 Alpha virt. eigenvalues --    0.36675   0.48276   0.48441   0.62694   0.76006
 Alpha virt. eigenvalues --    0.76006   0.87664   0.89842   0.90074   0.90074

 Mulliken charges:
               1
     1  C    0.211267
     2  C   -0.512235
     3  C   -0.512235
     4  H    0.203301
     5  H    0.203301
     6  H    0.203301
     7  H    0.203301
 Sum of Mulliken charges =   0.00000

 Dipole moment (field-independent basis, Debye):
    X=              0.0000    Y=             -0.0000    Z=             -0.0000  Tot=              0.0000
 Quadrupole moment (field-independent basis, Debye-Ang):
   XX=            -19.3683   YY=            -19.3683   ZZ=            -15.3335
   XY=             -0.0000   XZ=             -0.0000   YZ=             -0.0000

 Summary of Natural Population Analysis:

                                     Natural Population
             Natural    ---------------------------------------------
  Atom No    Charge        Core      Valence    Rydberg      Total
 --------------------------------------------------------------------
    C  1    0.08203      1.99999     3.90140    0.01658     5.91797
    C  2   -0.51246      1.99999     4.49591    0.01655     6.51246
    C  3   -0.51246      1.99999     4.49591    0.01655     6.51246
    H  4    0.23572      0.00000     0.76355    0.00073     0.76428
    H  5    0.23572      0.00000     0.76355    0.00073     0.76428
    H  6    0.23572      0.00000     0.76355    0.00073     0.76428
    H  7    0.23572      0.00000     0.76355    0.00073     0.76428
 ====================================================================
 * Total *  0.00000      5.99998    15.94743    0.05259    22.00000

 Normal termination of Gaussian 16 at Mon Nov 18 16:40:43 2024.
