 Gaussian 16, Revision C.01,
 Gaussian 16:  ES64L-G16RevC.01  3-Jul-2019

 -----------------------------------------------------------------
 #RHF/6-31G* int=nobasistransform Symmetry=None 5D 7F Pop=NBO7Read
 -----------------------------------------------------------------

 ---------
 mol90-NBO
 ---------
 Symbolic Z-matrix:
 Charge =  0 Multiplicity = 1

                          Input orientation:
 ---------------------------------------------------------------------
 Center     Atomic      Atomic             Coordinates (Angstroms)
 Number     Number       Type             X           Y           Z
 ---------------------------------------------------------------------
      1          6           0        0.000000    0.000000    0.376949
      2          1           0        0.000000    0.000000    1.475269
      3          6           0        0.000000    1.450290   -0.096234
      4          1           0        0.000000    1.493997   -1.190847
      5          1           0       -0.885482    1.984695    0.261297
      6          1           0        0.885482    1.984695    0.261297
      7          6           0        1.255988   -0.725145   -0.096234
      8          1           0        1.293839   -0.746998   -1.190847
      9          1           0        2.161537   -0.225498    0.261297
     10          1           0        1.276055   -1.759198    0.261297
     11          6           0       -1.255988   -0.725145   -0.096234
     12          1           0       -1.293839   -0.746998   -1.190847
     13          1           0       -1.276055   -1.759198    0.261297
     14          1           0       -2.161537   -0.225498    0.261297
 ---------------------------------------------------------------------

 SCF Done:  E(RHF) =  -157.297568666     A.U. after   10 cycles

 Alpha  occ. eigenvalues --  -11.22060 -11.20558 -11.20558 -11.20554  -1.08157
 Alpha  occ. eigenvalues --   -0.92534  -0.92534  -0.76459  -0.63112  -0.58916
 Alpha  occ. eigenvalues --   -0.58916  -0.53206  -0.53206  -0.50877  -0.46141
 Alpha  occ. eigenvalues --   -0.46141  -0.45711
 Alpha virt. eigenvalues --    0.22206   0.28119   0.30055   0.30055   0.30775
 Alpha virt. eigenvalues --    0.30775   0.32178   0.35339   0.35339   0.38807
 Alpha virt. eigenvalues --    0.39276   0.43310   0.43310   0.71964   0.71964

 Mulliken charges:
               1
     1  C   -0.154393
     2  H    0.156793
     3  C   -0.479778
     4  H    0.155856
     5  H    0.161561
     6  H    0.161561
     7  C   -0.479778
     8  H    0.155856
     9  H    0.161561
    10  H    0.161561
    11  C   -0.479778
    12  H    0.155856
    13  H    0.161561
    14  H    0.161561
 Sum of Mulliken charges =  -0.00000

 Dipole moment (field-independent basis, Debye):
    X=              0.0000    Y=              0.0000    Z=              0.0992  Tot=              0.0992
 Quadrupole moment (field-independent basis, Debye-Ang):
   XX=            -29.0448   YY=            -29.0448   ZZ=            -28.4319
   XY=              0.0000   XZ=              0.0000   YZ=             -0.0000

 Summary of Natural Population Analysis:

                                     Natural Population
             Natural    ---------------------------------------------
  Atom No    Charge        Core      Valence    Rydberg      Total
 --------------------------------------------------------------------
    C  1   -0.23801      1.99999     4.22315    0.01487     6.23801
    H  2    0.21994      0.00000     0.77780    0.00227     0.78006
    C  3   -0.63578      1.99999     4.62025    0.01554     6.63578
    H  4    0.20958      0.00000     0.78913    0.00129     0.79042
    H  5    0.21611      0.00000     0.78298    0.00091     0.78389
    H  6    0.21611      0.00000     0.78298    0.00091     0.78389
    C  7   -0.63578      1.99999     4.62025    0.01554     6.63578
    H  8    0.20958      0.00000     0.78913    0.00129     0.79042
    H  9    0.21611      0.00000     0.78298    0.00091     0.78389
    H 10    0.21611      0.00000     0.78298    0.00091     0.78389
    C 11   -0.63578      1.99999     4.62025    0.01554     6.63578
    H 12    0.20958      0.00000     0.78913    0.00129     0.79042
    H 13    0.21611      0.00000     0.78298    0.00091     0.78389
    H 14    0.21611      0.00000     0.78298    0.00091     0.78389
 ====================================================================
 * Total *  0.00000      7.99997    25.92696    0.07308    34.00000

 Normal termination of Gaussian 16 at Mon Nov 18 16:40:42 2024.
