 Gaussian 16, Revision C.01,
 Gaussian 16:  ES64L-G16RevC.01  3-Jul-2019

 -----------------------------------------------------------------
 #RHF/6-31G* int=nobasistransform Symmetry=None 5D 7F Pop=NBO7Read
 -----------------------------------------------------------------

 ----------
 mol110-NBO
 ----------
 Symbolic Z-matrix:
 Charge =  0 Multiplicity = 1

                          Input orientation:
 ---------------------------------------------------------------------
 Center     Atomic      Atomic             Coordinates (Angstroms)
 Number     Number       Type             X           Y           Z
 ---------------------------------------------------------------------
      1          6           0        0.000000    0.731580   -0.375674
      2          8           0        0.000000    0.000000    0.860950
      3          6           0        0.000000   -0.731580   -0.375674
      4          1           0        0.919568    1.268821   -0.594878
      5          1           0       -0.919568    1.268821   -0.594878
      6          1           0       -0.919568   -1.268821   -0.594878
      7          1           0        0.919568   -1.268821   -0.594878
 ---------------------------------------------------------------------

 SCF Done:  E(RHF) =  -152.864363731     A.U. after   10 cycles

 Alpha  occ. eigenvalues --  -20.57109 -11.28462 -11.28385  -1.40245  -0.93363
 Alpha  occ. eigenvalues --   -0.85986  -0.70092  -0.65708  -0.54269  -0.53968
 Alpha  occ. eigenvalues --   -0.44961  -0.44664
 Alpha virt. eigenvalues --    0.24664   0.27372   0.29018   0.29916   0.30730
 Alpha virt. eigenvalues --    0.36424   0.45287   0.64831   0.76704   0.78544
 Alpha virt. eigenvalues --    0.81678   0.89966   0.90942   1.07120   1.08058

 Mulliken charges:
               1
     1  C   -0.074739
     2  O   -0.589811
     3  C   -0.074739
     4  H    0.184822
     5  H    0.184822
     6  H    0.184822
     7  H    0.184822
 Sum of Mulliken charges =  -0.00000

 Dipole moment (field-independent basis, Debye):
    X=             -0.0000    Y=             -0.0000    Z=             -2.4603  Tot=              2.4603
 Quadrupole moment (field-independent basis, Debye-Ang):
   XX=            -17.3150   YY=            -16.1441   ZZ=            -20.7683
   XY=             -0.0000   XZ=             -0.0000   YZ=             -0.0000

 Summary of Natural Population Analysis:

                                     Natural Population
             Natural    ---------------------------------------------
  Atom No    Charge        Core      Valence    Rydberg      Total
 --------------------------------------------------------------------
    C  1   -0.09506      1.99999     4.07221    0.02286     6.09506
    O  2   -0.61571      1.99999     6.59435    0.02137     8.61571
    C  3   -0.09506      1.99999     4.07221    0.02286     6.09506
    H  4    0.20146      0.00000     0.79753    0.00101     0.79854
    H  5    0.20146      0.00000     0.79753    0.00101     0.79854
    H  6    0.20146      0.00000     0.79753    0.00101     0.79854
    H  7    0.20146      0.00000     0.79753    0.00101     0.79854
 ====================================================================
 * Total *  0.00000      5.99998    17.92891    0.07112    24.00000

 Normal termination of Gaussian 16 at Mon Nov 18 16:41:11 2024.
