 Gaussian 16, Revision C.01,
 Gaussian 16:  ES64L-G16RevC.01  3-Jul-2019

 -----------------------------------------------------------------
 #RHF/STO-3G int=nobasistransform Symmetry=None 5D 7F Pop=NBO7Read
 -----------------------------------------------------------------

 ---------
 mol57-NBO
 ---------
 Symbolic Z-matrix:
 Charge =  0 Multiplicity = 1

                          Input orientation:
 ---------------------------------------------------------------------
 Center     Atomic      Atomic             Coordinates (Angstroms)
 Number     Number       Type             X           Y           Z
 ---------------------------------------------------------------------
      1         13           0        0.000000    0.000000    0.000000
      2          9           0        0.000000    1.644720    0.000000
      3          9           0        1.424369   -0.822360    0.000000
      4          9           0       -1.424369   -0.822360    0.000000
 ---------------------------------------------------------------------

 SCF Done:  E(RHF) =  -533.245363615     A.U. after    9 cycles

 Alpha  occ. eigenvalues --  -57.83999 -25.77468 -25.77468 -25.77463  -4.77708
 Alpha  occ. eigenvalues --   -3.00687  -3.00687  -3.00650  -1.39868  -1.38150
 Alpha  occ. eigenvalues --   -1.38150  -0.51329  -0.45078  -0.45078  -0.44255
 Alpha  occ. eigenvalues --   -0.39671  -0.39116  -0.39116  -0.37591  -0.37591
 Alpha virt. eigenvalues --    0.36379   0.39173   0.71068   0.71068

 Mulliken charges:
               1
     1  Al   1.137424
     2  F   -0.379141
     3  F   -0.379141
     4  F   -0.379141
 Sum of Mulliken charges =   0.00000

 Dipole moment (field-independent basis, Debye):
    X=             -0.0000    Y=              0.0000    Z=              0.0000  Tot=              0.0000
 Quadrupole moment (field-independent basis, Debye-Ang):
   XX=            -26.3931   YY=            -26.3931   ZZ=            -17.2079
   XY=             -0.0000   XZ=              0.0000   YZ=              0.0000

 Summary of Natural Population Analysis:

                                     Natural Population
             Natural    ---------------------------------------------
  Atom No    Charge        Core      Valence    Rydberg      Total
 --------------------------------------------------------------------
   Al  1    1.37033      9.99998     1.62969    0.00000    11.62967
    F  2   -0.45678      2.00000     7.45678    0.00000     9.45678
    F  3   -0.45678      2.00000     7.45678    0.00000     9.45678
    F  4   -0.45678      2.00000     7.45678    0.00000     9.45678
 ====================================================================
 * Total *  0.00000     15.99998    24.00002    0.00000    40.00000

 Normal termination of Gaussian 16 at Mon Nov 18 15:41:22 2024.
