 Gaussian 16, Revision C.01,
 Gaussian 16:  ES64L-G16RevC.01  3-Jul-2019

 -----------------------------------------------------------------
 #RHF/6-31G* int=nobasistransform Symmetry=None 5D 7F Pop=NBO7Read
 -----------------------------------------------------------------

 ----------
 mol123-NBO
 ----------
 Symbolic Z-matrix:
 Charge =  0 Multiplicity = 1

                          Input orientation:
 ---------------------------------------------------------------------
 Center     Atomic      Atomic             Coordinates (Angstroms)
 Number     Number       Type             X           Y           Z
 ---------------------------------------------------------------------
      1          8           0        0.000000    0.000000    1.405591
      2          6           0        0.000000    0.000000    0.179060
      3          6           0        0.000000    1.285490   -0.616342
      4          6           0        0.000000   -1.285490   -0.616342
      5          1           0        0.000000    2.134917    0.066535
      6          1           0        0.000000   -2.134917    0.066535
      7          1           0       -0.881086    1.331548   -1.264013
      8          1           0        0.881086    1.331548   -1.264013
      9          1           0        0.881086   -1.331548   -1.264013
     10          1           0       -0.881086   -1.331548   -1.264013
 ---------------------------------------------------------------------

 SCF Done:  E(RHF) =  -191.958908231     A.U. after   12 cycles

 Alpha  occ. eigenvalues --  -20.55012 -11.33449 -11.23237 -11.23233  -1.37385
 Alpha  occ. eigenvalues --   -1.04259  -0.96704  -0.73972  -0.64074  -0.63218
 Alpha  occ. eigenvalues --   -0.62175  -0.56091  -0.55871  -0.53512  -0.47861
 Alpha  occ. eigenvalues --   -0.41110
 Alpha virt. eigenvalues --    0.15751   0.22242   0.28121   0.29313   0.31317
 Alpha virt. eigenvalues --    0.32249   0.33314   0.36666   0.46418   0.49248
 Alpha virt. eigenvalues --    0.70080   0.75784   0.76453   0.79434   0.80660

 Mulliken charges:
               1
     1  O   -0.548688
     2  C    0.548700
     3  C   -0.590597
     4  C   -0.590597
     5  H    0.214912
     6  H    0.214912
     7  H    0.187839
     8  H    0.187839
     9  H    0.187839
    10  H    0.187839
 Sum of Mulliken charges =  -0.00000

 Dipole moment (field-independent basis, Debye):
    X=             -0.0000    Y=             -0.0000    Z=             -3.3179  Tot=              3.3179
 Quadrupole moment (field-independent basis, Debye-Ang):
   XX=            -24.2210   YY=            -23.6639   ZZ=            -29.3484
   XY=              0.0000   XZ=              0.0000   YZ=             -0.0000

 Summary of Natural Population Analysis:

                                     Natural Population
             Natural    ---------------------------------------------
  Atom No    Charge        Core      Valence    Rydberg      Total
 --------------------------------------------------------------------
    O  1   -0.64109      1.99999     6.62116    0.01994     8.64109
    C  2    0.68402      1.99999     3.27492    0.04106     5.31598
    C  3   -0.73863      1.99999     4.72535    0.01329     6.73863
    C  4   -0.73863      1.99999     4.72535    0.01329     6.73863
    H  5    0.24832      0.00000     0.75032    0.00135     0.75168
    H  6    0.24832      0.00000     0.75032    0.00135     0.75168
    H  7    0.23442      0.00000     0.76476    0.00082     0.76558
    H  8    0.23442      0.00000     0.76476    0.00082     0.76558
    H  9    0.23442      0.00000     0.76476    0.00082     0.76558
    H 10    0.23442      0.00000     0.76476    0.00082     0.76558
 ====================================================================
 * Total *  0.00000      7.99997    23.90645    0.09358    32.00000

 Normal termination of Gaussian 16 at Mon Nov 18 16:41:11 2024.
