 Gaussian 16, Revision C.01,
 Gaussian 16:  ES64L-G16RevC.01  3-Jul-2019

 -----------------------------------------------------------------
 #RHF/6-31G* int=nobasistransform Symmetry=None 5D 7F Pop=NBO7Read
 -----------------------------------------------------------------

 ----------
 mol109-NBO
 ----------
 Symbolic Z-matrix:
 Charge =  0 Multiplicity = 1

                          Input orientation:
 ---------------------------------------------------------------------
 Center     Atomic      Atomic             Coordinates (Angstroms)
 Number     Number       Type             X           Y           Z
 ---------------------------------------------------------------------
      1          6           0        0.000000    0.000000   -1.219340
      2          6           0        0.000000    0.000000    0.098920
      3          1           0        0.000000    0.938847   -1.753224
      4          1           0        0.000000   -0.938847   -1.753224
      5          8           0        0.000000    0.000000    1.278620
 ---------------------------------------------------------------------

 SCF Done:  E(RHF) =  -151.721301023     A.U. after   12 cycles

 Alpha  occ. eigenvalues --  -20.63521 -11.39246 -11.24134  -1.45925  -1.04978
 Alpha  occ. eigenvalues --   -0.75213  -0.67477  -0.64871  -0.63091  -0.55316
 Alpha  occ. eigenvalues --   -0.36226
 Alpha virt. eigenvalues --    0.13151   0.22466   0.25140   0.34997   0.36748
 Alpha virt. eigenvalues --    0.46104   0.72159   0.74149   0.75598   0.84646
 Alpha virt. eigenvalues --    0.84663   1.00557   1.02254   1.13485   1.18584

 Mulliken charges:
               1
     1  C   -0.605078
     2  C    0.588703
     3  H    0.242649
     4  H    0.242649
     5  O   -0.468923
 Sum of Mulliken charges =  -0.00000

 Dipole moment (field-independent basis, Debye):
    X=             -0.0000    Y=             -0.0000    Z=             -1.9239  Tot=              1.9239
 Quadrupole moment (field-independent basis, Debye-Ang):
   XX=            -18.8060   YY=            -15.1595   ZZ=            -18.5002
   XY=              0.0000   XZ=             -0.0000   YZ=              0.0000

 Summary of Natural Population Analysis:

                                     Natural Population
             Natural    ---------------------------------------------
  Atom No    Charge        Core      Valence    Rydberg      Total
 --------------------------------------------------------------------
    C  1   -0.81946      1.99999     4.80218    0.01729     6.81946
    C  2    0.85115      1.99999     3.11108    0.03779     5.14885
    H  3    0.26968      0.00000     0.73013    0.00019     0.73032
    H  4    0.26968      0.00000     0.73013    0.00019     0.73032
    O  5   -0.57104      1.99999     6.54412    0.02692     8.57104
 ====================================================================
 * Total *  0.00000      5.99997    15.91764    0.08239    22.00000

 Normal termination of Gaussian 16 at Mon Nov 18 16:41:11 2024.
