 Gaussian 16, Revision C.01,
 Gaussian 16:  ES64L-G16RevC.01  3-Jul-2019

 -----------------------------------------------------------------
 #RHF/6-31G* int=nobasistransform Symmetry=None 5D 7F Pop=NBO7Read
 -----------------------------------------------------------------

 ---------
 mol33-NBO
 ---------
 Symbolic Z-matrix:
 Charge =  0 Multiplicity = 1

                          Input orientation:
 ---------------------------------------------------------------------
 Center     Atomic      Atomic             Coordinates (Angstroms)
 Number     Number       Type             X           Y           Z
 ---------------------------------------------------------------------
      1          7           0        0.000000    0.718959   -0.077687
      2          7           0        0.000000   -0.718959   -0.077687
      3          1           0        0.211082    1.092752    0.847887
      4          1           0       -0.948214    1.005026   -0.304078
      5          1           0       -0.211082   -1.092752    0.847887
      6          1           0        0.948214   -1.005026   -0.304078
 ---------------------------------------------------------------------

 SCF Done:  E(RHF) =  -111.166971982     A.U. after   11 cycles

 Alpha  occ. eigenvalues --  -15.56688 -15.56647  -1.24916  -1.00496  -0.67075
 Alpha  occ. eigenvalues --   -0.66083  -0.59692  -0.41313  -0.40463
 Alpha virt. eigenvalues --    0.21920   0.25636   0.30419   0.32998   0.43723
 Alpha virt. eigenvalues --    0.91129   0.92842   0.93963   0.97069   1.00340
 Alpha virt. eigenvalues --    1.10000   1.17544   1.21115   1.22396   1.25306

 Mulliken charges:
               1
     1  N   -0.687802
     2  N   -0.687802
     3  H    0.331067
     4  H    0.356735
     5  H    0.331067
     6  H    0.356735
 Sum of Mulliken charges =  -0.00000

 Dipole moment (field-independent basis, Debye):
    X=              0.0000    Y=              0.0000    Z=              2.3142  Tot=              2.3142
 Quadrupole moment (field-independent basis, Debye-Ang):
   XX=            -12.0799   YY=            -12.9789   ZZ=            -12.7997
   XY=             -2.8871   XZ=             -0.0000   YZ=             -0.0000

 Summary of Natural Population Analysis:

                                     Natural Population
             Natural    ---------------------------------------------
  Atom No    Charge        Core      Valence    Rydberg      Total
 --------------------------------------------------------------------
    N  1   -0.72809      1.99999     5.70577    0.02232     7.72809
    N  2   -0.72809      1.99999     5.70577    0.02232     7.72809
    H  3    0.35304      0.00000     0.64476    0.00220     0.64696
    H  4    0.37505      0.00000     0.62318    0.00178     0.62495
    H  5    0.35304      0.00000     0.64476    0.00220     0.64696
    H  6    0.37505      0.00000     0.62318    0.00178     0.62495
 ====================================================================
 * Total *  0.00000      3.99998    13.94741    0.05261    18.00000

 Normal termination of Gaussian 16 at Mon Nov 18 16:40:06 2024.
