 Gaussian 16, Revision C.01,
 Gaussian 16:  ES64L-G16RevC.01  3-Jul-2019

 -----------------------------------------------------------------
 #RHF/6-31G* int=nobasistransform Symmetry=None 5D 7F Pop=NBO7Read
 -----------------------------------------------------------------

 ----------
 mol107-NBO
 ----------
 Symbolic Z-matrix:
 Charge =  0 Multiplicity = 1

                          Input orientation:
 ---------------------------------------------------------------------
 Center     Atomic      Atomic             Coordinates (Angstroms)
 Number     Number       Type             X           Y           Z
 ---------------------------------------------------------------------
      1          6           0       -0.027530   -0.224702    1.204880
      2          7           0       -0.027530    0.592470    0.000000
      3          6           0       -0.027530   -0.224702   -1.204880
      4          1           0        0.791501   -0.962742    1.248506
      5          1           0        0.039598    0.421182    2.083405
      6          1           0       -0.972220   -0.772987    1.261750
      7          1           0        0.805303    1.178220    0.000000
      8          1           0        0.791501   -0.962742   -1.248506
      9          1           0        0.039598    0.421182   -2.083405
     10          1           0       -0.972220   -0.772987   -1.261750
 ---------------------------------------------------------------------

 SCF Done:  E(RHF) =  -134.237207683     A.U. after   11 cycles

 Alpha  occ. eigenvalues --  -15.54057 -11.23673 -11.23671  -1.19620  -0.94318
 Alpha  occ. eigenvalues --   -0.85084  -0.65826  -0.61026  -0.58810  -0.53681
 Alpha  occ. eigenvalues --   -0.50789  -0.50250  -0.36665
 Alpha virt. eigenvalues --    0.22781   0.28014   0.29856   0.30794   0.31910
 Alpha virt. eigenvalues --    0.34720   0.35059   0.37925   0.44962   0.73081
 Alpha virt. eigenvalues --    0.75847   0.78979   0.79768   0.82463   0.98131

 Mulliken charges:
               1
     1  C   -0.295581
     2  N   -0.688787
     3  C   -0.295581
     4  H    0.134559
     5  H    0.169340
     6  H    0.167805
     7  H    0.336540
     8  H    0.134559
     9  H    0.169340
    10  H    0.167805
 Sum of Mulliken charges =  -0.00000

 Dipole moment (field-independent basis, Debye):
    X=              1.0819    Y=             -0.5526    Z=             -0.0000  Tot=              1.2149
 Quadrupole moment (field-independent basis, Debye-Ang):
   XX=            -20.7845   YY=            -21.5113   ZZ=            -19.7117
   XY=              2.1832   XZ=             -0.0000   YZ=              0.0000

 Summary of Natural Population Analysis:

                                     Natural Population
             Natural    ---------------------------------------------
  Atom No    Charge        Core      Valence    Rydberg      Total
 --------------------------------------------------------------------
    C  1   -0.41226      1.99999     4.39381    0.01845     6.41226
    N  2   -0.73057      1.99999     5.71015    0.02042     7.73057
    C  3   -0.41226      1.99999     4.39381    0.01845     6.41226
    H  4    0.17532      0.00000     0.82254    0.00214     0.82468
    H  5    0.21052      0.00000     0.78866    0.00083     0.78948
    H  6    0.20443      0.00000     0.79432    0.00125     0.79557
    H  7    0.37456      0.00000     0.62303    0.00241     0.62544
    H  8    0.17532      0.00000     0.82254    0.00214     0.82468
    H  9    0.21052      0.00000     0.78866    0.00083     0.78948
    H 10    0.20443      0.00000     0.79432    0.00125     0.79557
 ====================================================================
 * Total *  0.00000      5.99997    19.93185    0.06818    26.00000

 Normal termination of Gaussian 16 at Mon Nov 18 16:41:11 2024.
