 Gaussian 16, Revision C.01,
 Gaussian 16:  ES64L-G16RevC.01  3-Jul-2019

 -----------------------------------------------------------------
 #RHF/STO-3G int=nobasistransform Symmetry=None 5D 7F Pop=NBO7Read
 -----------------------------------------------------------------

 ---------
 mol27-NBO
 ---------
 Symbolic Z-matrix:
 Charge =  0 Multiplicity = 1

                          Input orientation:
 ---------------------------------------------------------------------
 Center     Atomic      Atomic             Coordinates (Angstroms)
 Number     Number       Type             X           Y           Z
 ---------------------------------------------------------------------
      1          6           0        0.000000    0.000000   -0.511747
      2          7           0        0.000000    0.000000    0.664461
      3          1           0        0.000000    0.000000   -1.580746
 ---------------------------------------------------------------------

 SCF Done:  E(RHF) =  -91.6736178169     A.U. after    9 cycles

 Alpha  occ. eigenvalues --  -15.38179 -11.07612  -1.16750  -0.74931  -0.49146
 Alpha  occ. eigenvalues --   -0.43030  -0.43030
 Alpha virt. eigenvalues --    0.33911   0.33911   0.53994   1.26918

 Mulliken charges:
               1
     1  C    0.006727
     2  N   -0.154506
     3  H    0.147778
 Sum of Mulliken charges =  -0.00000

 Dipole moment (field-independent basis, Debye):
    X=              0.0000    Y=             -0.0000    Z=             -2.4420  Tot=              2.4420
 Quadrupole moment (field-independent basis, Debye-Ang):
   XX=            -10.4121   YY=            -10.4121   ZZ=             -9.7067
   XY=              0.0000   XZ=              0.0000   YZ=             -0.0000

 Summary of Natural Population Analysis:

                                     Natural Population
             Natural    ---------------------------------------------
  Atom No    Charge        Core      Valence    Rydberg      Total
 --------------------------------------------------------------------
    C  1    0.03569      2.00000     3.96431    0.00000     5.96431
    N  2   -0.13855      2.00000     5.13856    0.00000     7.13855
    H  3    0.10287      0.00000     0.89713    0.00000     0.89713
 ====================================================================
 * Total *  0.00000      4.00000    10.00000    0.00000    14.00000

 Normal termination of Gaussian 16 at Mon Nov 18 15:41:20 2024.
